                         Program Version 4.0.1.2 - RELEASE -
|  1> # avogadro generated ORCA input file
|  2> # Basic Mode
|  3> #
|  4> ! PBE FREQ def2-TZVP
|  5>
|  6> * xyzfile 0 1 opt.xyz
|  7>
|  8>
|  9>                          ****END OF INPUT****

CARTESIAN COORDINATES (ANGSTROEM)
---------------------------------
  N     -2.653627    1.137410   -1.268313
  C     -1.543891    1.172649   -0.937656
  H     -0.513602    1.205601   -0.629841

 Total Charge           Charge          ....    0
 Multiplicity           Mult            ....    1
 Number of Electrons    NEL             ....   14
 Basis Dimension        Dim             ....   68

ORBITAL ENERGIES
----------------

  NO   OCC          E(Eh)            E(eV)
   0   2.0000     -14.008457      -381.1895
   1   2.0000      -9.937802      -270.4213
   2   2.0000      -0.842960       -22.9381
   3   2.0000      -0.553691       -15.0667
   4   2.0000      -0.334532        -9.1031
   5   2.0000      -0.329841        -8.9754
   6   2.0000      -0.329678        -8.9710
   7   0.0000      -0.035817        -0.9746
   8   0.0000      -0.035542        -0.9672
   9   0.0000       0.020989         0.5711
  10   0.0000       0.075326         2.0497
  11   0.0000       0.189320         5.1517

MULLIKEN ATOMIC CHARGES
-----------------------
   0 N :    0.016479
   1 C :   -0.200302
   2 H :    0.183823
Sum of atomic charges:   -0.0000000

LOEWDIN ATOMIC CHARGES
----------------------
   0 N :    0.053674
   1 C :   -0.178511
   2 H :    0.124836

  Mayer bond orders larger than 0.1
B(  0-N ,  1-C ) :   3.1089 B(  1-C ,  2-H ) :   0.9358

FINAL SINGLE POINT ENERGY       -93.347241347362

DIPOLE MOMENT
-------------
                                X             Y             Z
Electronic contribution:     -0.36235      -0.01102      -0.10482
Nuclear contribution   :      1.46698       0.04680       0.43785
                        -----------------------------------------
Total Dipole Moment    :      1.10464       0.03578       0.33303
                        -----------------------------------------
Magnitude (a.u.)       :      1.15430
Magnitude (Debye)      :      2.93400

VIBRATIONAL FREQUENCIES
-----------------------

   0:         0.00 cm**-1
   1:         0.00 cm**-1
   2:         0.00 cm**-1
   3:         0.00 cm**-1
   4:         0.00 cm**-1
   5:         0.00 cm**-1
   6:       733.91 cm**-1
   7:      2121.41 cm**-1
   8:      3363.12 cm**-1

IR SPECTRUM
-----------

 Mode    freq (cm**-1)   T**2         TX         TY         TZ
-------------------------------------------------------------------
   6:       733.91   38.040796  (  1.843290  -1.700486  -5.634840)
   7:      2121.41    0.151564  (  0.368287   0.014812   0.125337)
   8:      3363.12   57.641788  ( -7.255725  -0.239732  -2.222335)

--------------------------
THERMOCHEMISTRY AT 298.15K
--------------------------

Temperature         ... 298.15 K
Pressure            ... 1.00 atm
Total Mass          ... 27.03 AMU

Throughout the following assumptions are being made:
  (1) The electronic state is orbitally nondegenerate
  (2) There are no thermally accessible electronically excited states
  (3) Hindered rotations indicated by low frequency modes are not
      treated as such but are treated as vibrations and this may
      cause some error
  (4) All equations used are the standard statistical mechanics
      equations for an ideal gas
  (5) All vibrations are strictly harmonic

freq.     733.91  E(vib)   ...       0.06
freq.    2121.41  E(vib)   ...       0.00
freq.    3363.12  E(vib)   ...       0.00

------------
INNER ENERGY
------------

The inner energy is: U= E(el) + E(ZPE) + E(vib) + E(rot) + E(trans)
    E(el)   - is the total energy from the electronic structure calculation
              = E(kin-el) + E(nuc-el) + E(el-el) + E(nuc-nuc)
    E(ZPE)  - the the zero temperature vibrational energy from the frequency calculation
    E(vib)  - the the finite temperature correction to E(ZPE) due to population
              of excited vibrational states
    E(rot)  - is the rotational thermal energy
    E(trans)- is the translational thermal energy

Summary of contributions to the inner energy U:
Electronic energy                ...    -93.34724135 Eh
Zero point energy                ...      0.01416662 Eh       8.89 kcal/mol
Thermal vibrational correction   ...      0.00010011 Eh       0.06 kcal/mol
Thermal rotational correction    ...      0.00141627 Eh       0.89 kcal/mol
Thermal translational correction ...      0.00141627 Eh       0.89 kcal/mol
-----------------------------------------------------------------------
Total thermal energy                    -93.33014207 Eh

Summary of corrections to the electronic energy:
(perhaps to be used in another calculation)
Total thermal correction                  0.00293265 Eh       1.84 kcal/mol
Non-thermal (ZPE) correction              0.01416662 Eh       8.89 kcal/mol
-----------------------------------------------------------------------
Total correction                          0.01709928 Eh      10.73 kcal/mol

--------
ENTHALPY
--------

The enthalpy is H = U + kB*T
                kB is Boltzmann's constant
Total free energy                 ...    -93.33014207 Eh
Thermal Enthalpy correction       ...      0.00094421 Eh       0.59 kcal/mol
-----------------------------------------------------------------------
Total Enthalpy                    ...    -93.32919786 Eh

Vibrational entropy computed according to the QRRHO of S. Grimme
Chem.Eur.J. 2012 18 9955

-------
ENTROPY
-------

The entropy contributions are T*S = T*(S(el)+S(vib)+S(rot)+S(trans)
     S(el)   - electronic entropy
     S(vib)  - vibrational entropy
     S(rot)  - rotational entropy
     S(trans)- translational entropy
The entropies will be listed as mutliplied by the temperature to get
units of energy

Electronic entropy                ...      0.00000000 Eh      0.00 kcal/mol
Vibrational entropy               ...      0.00012800 Eh      0.08 kcal/mol
Rotational entropy                ...     -0.00006895 Eh     -0.04 kcal/mol
Translational entropy             ...      0.01701823 Eh     10.68 kcal/mol
-----------------------------------------------------------------------
Final entropy term                ...      0.01707728 Eh     10.72 kcal/mol

CAUTION: The rotational entropy is not quite correctly treated here
         because it includes a symmetry number that is not yet correctly
         implemented in ORCA!
For a nonlinear molecule the correct rotational entropy is:
    S(rot) = R*(ln(qrot/sn)+1.5)
    R    = 8.31441 J/mol/K = 1.987191683e-3 kcal/mol/K
    qrot =    0.6222524
    sn is the rotational symmetry number. We have assumed 3 here
       if it is different for your molecule then you should correct
       the printed rotational entropy by manually evaluating the equation
       as given above

For convenience we print out the resulting values for sn=1 - 12:
 sn= 1  qrot/sn=       0.6223 T*S(rot)=     0.61 kcal/mol T*S(tot)=    11.37 kcal/mol
 sn= 2  qrot/sn=       0.3111 T*S(rot)=     0.20 kcal/mol T*S(tot)=    10.96 kcal/mol
 sn= 3  qrot/sn=       0.2074 T*S(rot)=    -0.04 kcal/mol T*S(tot)=    10.72 kcal/mol
 sn= 4  qrot/sn=       0.1556 T*S(rot)=    -0.21 kcal/mol T*S(tot)=    10.55 kcal/mol
 sn= 5  qrot/sn=       0.1245 T*S(rot)=    -0.35 kcal/mol T*S(tot)=    10.41 kcal/mol
 sn= 6  qrot/sn=       0.1037 T*S(rot)=    -0.45 kcal/mol T*S(tot)=    10.31 kcal/mol
 sn= 7  qrot/sn=       0.0889 T*S(rot)=    -0.55 kcal/mol T*S(tot)=    10.21 kcal/mol
 sn= 8  qrot/sn=       0.0778 T*S(rot)=    -0.62 kcal/mol T*S(tot)=    10.14 kcal/mol
 sn= 9  qrot/sn=       0.0691 T*S(rot)=    -0.69 kcal/mol T*S(tot)=    10.07 kcal/mol
 sn=10  qrot/sn=       0.0622 T*S(rot)=    -0.76 kcal/mol T*S(tot)=    10.00 kcal/mol
 sn=11  qrot/sn=       0.0566 T*S(rot)=    -0.81 kcal/mol T*S(tot)=     9.95 kcal/mol
 sn=12  qrot/sn=       0.0519 T*S(rot)=    -0.86 kcal/mol T*S(tot)=     9.89 kcal/mol

-------------------
GIBBS FREE ENTHALPY
-------------------

The Gibbs free enthalpy is G = H - T*S

Total enthalpy                    ...    -93.32919786 Eh
Total entropy correction          ...     -0.01707728 Eh    -10.72 kcal/mol
-----------------------------------------------------------------------
Final Gibbs free enthalpy         ...    -93.34627515 Eh

For completeness - the Gibbs free enthalpy minus the electronic energy
G-E(el)                           ...      0.00096620 Eh      0.61 kcal/mol

                             ****ORCA TERMINATED NORMALLY****
TOTAL RUN TIME: 0 days 0 hours 0 minutes 12 seconds 954 msec
