                         Program Version 4.0.1.2 - RELEASE -
|  1> # avogadro generated ORCA input file
|  2> # Basic Mode
|  3> #
|  4> ! PBE OPT def2-TZVP
|  5>
|  6> * xyzfile 0 1 HCN.xyz
|  7>
|  8>
|  9>                          ****END OF INPUT****
 Total Charge           Charge          ....    0
 Multiplicity           Mult            ....    1
 Number of Electrons    NEL             ....   14
FINAL SINGLE POINT ENERGY       -93.002534737929
FINAL SINGLE POINT ENERGY       -93.074920579589
FINAL SINGLE POINT ENERGY       -93.154937660894
FINAL SINGLE POINT ENERGY       -93.231965570033
FINAL SINGLE POINT ENERGY       -93.283852156910
FINAL SINGLE POINT ENERGY       -93.314410377218
FINAL SINGLE POINT ENERGY       -93.339216112547
FINAL SINGLE POINT ENERGY       -93.346144658941
FINAL SINGLE POINT ENERGY       -93.347086156546
FINAL SINGLE POINT ENERGY       -93.347216314320
FINAL SINGLE POINT ENERGY       -93.347224875924
FINAL SINGLE POINT ENERGY       -93.347233244728
FINAL SINGLE POINT ENERGY       -93.347240520604
FINAL SINGLE POINT ENERGY       -93.347241310228
                    ***********************HURRAY********************

CARTESIAN COORDINATES (ANGSTROEM)
---------------------------------
  N     -2.653627    1.137410   -1.268313
  C     -1.543891    1.172649   -0.937656
  H     -0.513602    1.205601   -0.629841

 Multiplicity           Mult            ....    1
 Number of Electrons    NEL             ....   14
 Basis Dimension        Dim             ....   68

ORBITAL ENERGIES
----------------

  NO   OCC          E(Eh)            E(eV)
   0   2.0000     -14.008434      -381.1889
   1   2.0000      -9.937783      -270.4208
   2   2.0000      -0.842949       -22.9378
   3   2.0000      -0.553683       -15.0665
   4   2.0000      -0.334524        -9.1029
   5   2.0000      -0.329833        -8.9752
   6   2.0000      -0.329670        -8.9708
   7   0.0000      -0.035810        -0.9744
   8   0.0000      -0.035535        -0.9670
   9   0.0000       0.020993         0.5712
  10   0.0000       0.075328         2.0498
  11   0.0000       0.189323         5.1517

MULLIKEN ATOMIC CHARGES
-----------------------
   0 N :    0.016483
   1 C :   -0.200310
   2 H :    0.183827
Sum of atomic charges:   -0.0000000

LOEWDIN ATOMIC CHARGES
----------------------
   0 N :    0.053677
   1 C :   -0.178515
   2 H :    0.124838

  Mayer bond orders larger than 0.1
B(  0-N ,  1-C ) :   3.1088 B(  1-C ,  2-H ) :   0.9358

FINAL SINGLE POINT ENERGY       -93.347241350287

DIPOLE MOMENT
-------------
                                X             Y             Z
Electronic contribution:     -0.36237      -0.01101      -0.10483
Nuclear contribution   :      1.46698       0.04680       0.43785
                        -----------------------------------------
Total Dipole Moment    :      1.10461       0.03578       0.33302
                        -----------------------------------------
Magnitude (a.u.)       :      1.15427
Magnitude (Debye)      :      2.93392

                             ****ORCA TERMINATED NORMALLY****
TOTAL RUN TIME: 0 days 0 hours 0 minutes 57 seconds 432 msec
