                         Program Version 4.0.1.2 - RELEASE -
|  1> # avogadro generated ORCA input file
|  2> # Basic Mode
|  3> #
|  4> ! PBE FREQ def2-TZVP
|  5>
|  6> * xyzfile 0 1 opt.xyz
|  7>
|  8>
|  9>                          ****END OF INPUT****

CARTESIAN COORDINATES (ANGSTROEM)
---------------------------------
  O      0.326748   -0.226802    0.188898
  H     -0.454623    0.344989    0.261997
  H      0.966335    0.302793   -0.314435

 Total Charge           Charge          ....    0
 Multiplicity           Mult            ....    1
 Number of Electrons    NEL             ....   10
 Basis Dimension        Dim             ....   43

ORBITAL ENERGIES
----------------

  NO   OCC          E(Eh)            E(eV)
   0   2.0000     -18.745434      -510.0892
   1   2.0000      -0.920001       -25.0345
   2   2.0000      -0.474511       -12.9121
   3   2.0000      -0.333127        -9.0648
   4   2.0000      -0.255679        -6.9574
   5   0.0000      -0.003526        -0.0960
   6   0.0000       0.070834         1.9275
   7   0.0000       0.325604         8.8601
   8   0.0000       0.375460        10.2168
   9   0.0000       0.398379        10.8404

MULLIKEN ATOMIC CHARGES
-----------------------
   0 O :   -0.623721
   1 H :    0.311489
   2 H :    0.312231
Sum of atomic charges:   -0.0000000

LOEWDIN ATOMIC CHARGES
----------------------
   0 O :   -0.314678
   1 H :    0.157301
   2 H :    0.157377

  Mayer bond orders larger than 0.1
B(  0-O ,  1-H ) :   0.9132 B(  0-O ,  2-H ) :   0.9127

FINAL SINGLE POINT ENERGY       -76.376890359220

DIPOLE MOMENT
-------------
                                X             Y             Z
Electronic contribution:      0.02429      -0.17701       0.07275
Nuclear contribution   :     -0.11802       0.91675      -0.35811
                        -----------------------------------------
Total Dipole Moment    :     -0.09373       0.73974      -0.28536
                        -----------------------------------------
Magnitude (a.u.)       :      0.79840
Magnitude (Debye)      :      2.02936

VIBRATIONAL FREQUENCIES
-----------------------

   0:         0.00 cm**-1
   1:         0.00 cm**-1
   2:         0.00 cm**-1
   3:         0.00 cm**-1
   4:         0.00 cm**-1
   5:         0.00 cm**-1
   6:      1583.51 cm**-1
   7:      3689.44 cm**-1
   8:      3797.33 cm**-1

IR SPECTRUM
-----------

 Mode    freq (cm**-1)   T**2         TX         TY         TZ
-------------------------------------------------------------------
   6:      1583.51   72.483464  ( -1.015169   7.888494  -3.037195)
   7:      3689.44    1.666801  (  0.140455  -1.187863   0.485856)
   8:      3797.33   33.353153  ( -5.349613   0.163872   2.169778)

--------------------------
THERMOCHEMISTRY AT 298.15K
--------------------------

Temperature         ... 298.15 K
Pressure            ... 1.00 atm
Total Mass          ... 18.02 AMU

Throughout the following assumptions are being made:
  (1) The electronic state is orbitally nondegenerate
  (2) There are no thermally accessible electronically excited states
  (3) Hindered rotations indicated by low frequency modes are not
      treated as such but are treated as vibrations and this may
      cause some error
  (4) All equations used are the standard statistical mechanics
      equations for an ideal gas
  (5) All vibrations are strictly harmonic

freq.    1583.51  E(vib)   ...       0.00
freq.    3689.44  E(vib)   ...       0.00
freq.    3797.33  E(vib)   ...       0.00

------------
INNER ENERGY
------------

The inner energy is: U= E(el) + E(ZPE) + E(vib) + E(rot) + E(trans)
    E(el)   - is the total energy from the electronic structure calculation
              = E(kin-el) + E(nuc-el) + E(el-el) + E(nuc-nuc)
    E(ZPE)  - the the zero temperature vibrational energy from the frequency calculation
    E(vib)  - the the finite temperature correction to E(ZPE) due to population
              of excited vibrational states
    E(rot)  - is the rotational thermal energy
    E(trans)- is the translational thermal energy

Summary of contributions to the inner energy U:
Electronic energy                ...    -76.37689036 Eh
Zero point energy                ...      0.02066362 Eh      12.97 kcal/mol
Thermal vibrational correction   ...      0.00000347 Eh       0.00 kcal/mol
Thermal rotational correction    ...      0.00141627 Eh       0.89 kcal/mol
Thermal translational correction ...      0.00141627 Eh       0.89 kcal/mol
-----------------------------------------------------------------------
Total thermal energy                    -76.35339073 Eh

Summary of corrections to the electronic energy:
(perhaps to be used in another calculation)
Total thermal correction                  0.00283601 Eh       1.78 kcal/mol
Non-thermal (ZPE) correction              0.02066362 Eh      12.97 kcal/mol
-----------------------------------------------------------------------
Total correction                          0.02349963 Eh      14.75 kcal/mol

--------
ENTHALPY
--------

The enthalpy is H = U + kB*T
                kB is Boltzmann's constant
Total free energy                 ...    -76.35339073 Eh
Thermal Enthalpy correction       ...      0.00094421 Eh       0.59 kcal/mol
-----------------------------------------------------------------------
Total Enthalpy                    ...    -76.35244652 Eh

Vibrational entropy computed according to the QRRHO of S. Grimme
Chem.Eur.J. 2012 18 9955

-------
ENTROPY
-------

The entropy contributions are T*S = T*(S(el)+S(vib)+S(rot)+S(trans)
     S(el)   - electronic entropy
     S(vib)  - vibrational entropy
     S(rot)  - rotational entropy
     S(trans)- translational entropy
The entropies will be listed as mutliplied by the temperature to get
units of energy

Electronic entropy                ...      0.00000000 Eh      0.00 kcal/mol
Vibrational entropy               ...      0.00000392 Eh      0.00 kcal/mol
Rotational entropy                ...      0.00462175 Eh      2.90 kcal/mol
Translational entropy             ...      0.01644380 Eh     10.32 kcal/mol
-----------------------------------------------------------------------
Final entropy term                ...      0.02106947 Eh     13.22 kcal/mol

CAUTION: The rotational entropy is not quite correctly treated here
         because it includes a symmetry number that is not yet correctly
         implemented in ORCA!
For a nonlinear molecule the correct rotational entropy is:
    S(rot) = R*(ln(qrot/sn)+1.5)
    R    = 8.31441 J/mol/K = 1.987191683e-3 kcal/mol/K
    qrot =   89.4421576
    sn is the rotational symmetry number. We have assumed 3 here
       if it is different for your molecule then you should correct
       the printed rotational entropy by manually evaluating the equation
       as given above

For convenience we print out the resulting values for sn=1 - 12:
 sn= 1  qrot/sn=      89.4422 T*S(rot)=     3.55 kcal/mol T*S(tot)=    13.87 kcal/mol
 sn= 2  qrot/sn=      44.7211 T*S(rot)=     3.14 kcal/mol T*S(tot)=    13.46 kcal/mol
 sn= 3  qrot/sn=      29.8141 T*S(rot)=     2.90 kcal/mol T*S(tot)=    13.22 kcal/mol
 sn= 4  qrot/sn=      22.3605 T*S(rot)=     2.73 kcal/mol T*S(tot)=    13.05 kcal/mol
 sn= 5  qrot/sn=      17.8884 T*S(rot)=     2.60 kcal/mol T*S(tot)=    12.92 kcal/mol
 sn= 6  qrot/sn=      14.9070 T*S(rot)=     2.49 kcal/mol T*S(tot)=    12.81 kcal/mol
 sn= 7  qrot/sn=      12.7775 T*S(rot)=     2.40 kcal/mol T*S(tot)=    12.72 kcal/mol
 sn= 8  qrot/sn=      11.1803 T*S(rot)=     2.32 kcal/mol T*S(tot)=    12.64 kcal/mol
 sn= 9  qrot/sn=       9.9380 T*S(rot)=     2.25 kcal/mol T*S(tot)=    12.57 kcal/mol
 sn=10  qrot/sn=       8.9442 T*S(rot)=     2.19 kcal/mol T*S(tot)=    12.51 kcal/mol
 sn=11  qrot/sn=       8.1311 T*S(rot)=     2.13 kcal/mol T*S(tot)=    12.45 kcal/mol
 sn=12  qrot/sn=       7.4535 T*S(rot)=     2.08 kcal/mol T*S(tot)=    12.40 kcal/mol

-------------------
GIBBS FREE ENTHALPY
-------------------

The Gibbs free enthalpy is G = H - T*S

Total enthalpy                    ...    -76.35244652 Eh
Total entropy correction          ...     -0.02106947 Eh    -13.22 kcal/mol
-----------------------------------------------------------------------
Final Gibbs free enthalpy         ...    -76.37351599 Eh

For completeness - the Gibbs free enthalpy minus the electronic energy
G-E(el)                           ...      0.00337437 Eh      2.12 kcal/mol

                             ****ORCA TERMINATED NORMALLY****
TOTAL RUN TIME: 0 days 0 hours 0 minutes 8 seconds 894 msec
