                         Program Version 4.0.1.2 - RELEASE -
|  1> # avogadro generated ORCA input file
|  2> # Basic Mode
|  3> #
|  4> ! PBE OPT def2-TZVP
|  5>
|  6> * xyzfile 0 1 H2O.xyz
|  7>
|  8>
|  9>                          ****END OF INPUT****
 Total Charge           Charge          ....    0
 Multiplicity           Mult            ....    1
 Number of Electrons    NEL             ....   10
FINAL SINGLE POINT ENERGY       -76.375684905430
FINAL SINGLE POINT ENERGY       -76.376643326115
FINAL SINGLE POINT ENERGY       -76.376850710188
FINAL SINGLE POINT ENERGY       -76.376889427384
FINAL SINGLE POINT ENERGY       -76.376890369105
                    ***********************HURRAY********************

CARTESIAN COORDINATES (ANGSTROEM)
---------------------------------
  O      0.326748   -0.226802    0.188898
  H     -0.454623    0.344989    0.261997
  H      0.966335    0.302793   -0.314435

 Multiplicity           Mult            ....    1
 Number of Electrons    NEL             ....   10
 Basis Dimension        Dim             ....   43

ORBITAL ENERGIES
----------------

  NO   OCC          E(Eh)            E(eV)
   0   2.0000     -18.745437      -510.0893
   1   2.0000      -0.920003       -25.0345
   2   2.0000      -0.474513       -12.9122
   3   2.0000      -0.333121        -9.0647
   4   2.0000      -0.255677        -6.9573
   5   0.0000      -0.003528        -0.0960
   6   0.0000       0.070833         1.9275
   7   0.0000       0.325603         8.8601
   8   0.0000       0.375457        10.2167
   9   0.0000       0.398381        10.8405

MULLIKEN ATOMIC CHARGES
-----------------------
   0 O :   -0.623782
   1 H :    0.311520
   2 H :    0.312262
Sum of atomic charges:   -0.0000000

LOEWDIN ATOMIC CHARGES
----------------------
   0 O :   -0.314704
   1 H :    0.157314
   2 H :    0.157390

  Mayer bond orders larger than 0.1
B(  0-O ,  1-H ) :   0.9132 B(  0-O ,  2-H ) :   0.9127

FINAL SINGLE POINT ENERGY       -76.376890398557

DIPOLE MOMENT
-------------
                                X             Y             Z
Electronic contribution:      0.02427      -0.17687       0.07269
Nuclear contribution   :     -0.11802       0.91675      -0.35811
                        -----------------------------------------
Total Dipole Moment    :     -0.09374       0.73988      -0.28541
                        -----------------------------------------
Magnitude (a.u.)       :      0.79855
Magnitude (Debye)      :      2.02974

                             ****ORCA TERMINATED NORMALLY****
TOTAL RUN TIME: 0 days 0 hours 0 minutes 13 seconds 735 msec
