                         Program Version 4.0.1.2 - RELEASE -
|  1> # avogadro generated ORCA input file
|  2> # Basic Mode
|  3> #
|  4> ! PBE FREQ def2-TZVP
|  5>
|  6> * xyzfile 0 1 opt.xyz
|  7>
|  8>
|  9>                          ****END OF INPUT****

CARTESIAN COORDINATES (ANGSTROEM)
---------------------------------
  O      0.312968    1.584383    0.000125
  C      0.306360    0.365282    0.000028
  C     -1.003087   -0.410108   -0.000010
  H     -0.864889   -1.499037    0.000048
  H     -1.590301   -0.117293    0.882970
  H     -1.590211   -0.117378   -0.883079
  H      1.613010   -1.105824   -0.882175
  C      1.584386   -0.445510   -0.000017
  H      2.457614    0.215848   -0.000074
  H      1.613090   -1.105763    0.882185

 Total Charge           Charge          ....    0
 Multiplicity           Mult            ....    1
 Number of Electrons    NEL             ....   32
 Basis Dimension        Dim             ....  160

ORBITAL ENERGIES
----------------

  NO   OCC          E(Eh)            E(eV)
   0   2.0000     -18.736115      -509.8356
   1   2.0000      -9.972043      -271.3531
   2   2.0000      -9.891201      -269.1533
   3   2.0000      -9.890413      -269.1318
   4   2.0000      -0.950647       -25.8684
   5   2.0000      -0.699303       -19.0290
   6   2.0000      -0.645574       -17.5670
   7   2.0000      -0.479551       -13.0492
   8   2.0000      -0.414505       -11.2793
   9   2.0000      -0.411435       -11.1957
  10   2.0000      -0.404509       -11.0073
  11   2.0000      -0.363708        -9.8970
  12   2.0000      -0.351182        -9.5562
  13   2.0000      -0.336670        -9.1612
  14   2.0000      -0.310078        -8.4377
  15   2.0000      -0.206684        -5.6242
  16   0.0000      -0.060697        -1.6517
  17   0.0000       0.008745         0.2380
  18   0.0000       0.057143         1.5549
  19   0.0000       0.075361         2.0507
  20   0.0000       0.077538         2.1099

MULLIKEN ATOMIC CHARGES
-----------------------
   0 O :   -0.246808
   1 C :    0.167838
   2 C :   -0.367831
   3 H :    0.125896
   4 H :    0.144434
   5 H :    0.144432
   6 H :    0.135849
   7 C :   -0.370384
   8 H :    0.130724
   9 H :    0.135850
Sum of atomic charges:   -0.0000000

LOEWDIN ATOMIC CHARGES
----------------------
   0 O :    0.137068
   1 C :   -0.393293
   2 C :   -0.285044
   3 H :    0.126128
   4 H :    0.143276
   5 H :    0.143277
   6 H :    0.139872
   7 C :   -0.283337
   8 H :    0.132176
   9 H :    0.139876

  Mayer bond orders larger than 0.1
B(  0-O ,  1-C ) :   2.1683 B(  1-C ,  2-C ) :   0.9383 B(  1-C ,  7-C ) :   0.9839
B(  2-C ,  3-H ) :   0.9523 B(  2-C ,  4-H ) :   0.9465 B(  2-C ,  5-H ) :   0.9465
B(  6-H ,  7-C ) :   0.9348 B(  7-C ,  8-H ) :   0.9627 B(  7-C ,  9-H ) :   0.9348

FINAL SINGLE POINT ENERGY      -192.987225792467

DIPOLE MOMENT
-------------
                                X             Y             Z
Electronic contribution:      0.11167       3.89355       0.00022
Nuclear contribution   :     -0.14142      -5.00106      -0.00030
                        -----------------------------------------
Total Dipole Moment    :     -0.02975      -1.10751      -0.00008
                        -----------------------------------------
Magnitude (a.u.)       :      1.10791
Magnitude (Debye)      :      2.81608

VIBRATIONAL FREQUENCIES
-----------------------

   0:         0.00 cm**-1
   1:         0.00 cm**-1
   2:         0.00 cm**-1
   3:         0.00 cm**-1
   4:         0.00 cm**-1
   5:         0.00 cm**-1
   6:      -106.22 cm**-1 ***imaginary mode***
   7:       160.02 cm**-1
   8:       370.42 cm**-1
   9:       480.03 cm**-1
  10:       509.25 cm**-1
  11:       762.58 cm**-1
  12:       837.45 cm**-1
  13:       883.14 cm**-1
  14:      1029.33 cm**-1
  15:      1062.52 cm**-1
  16:      1189.07 cm**-1
  17:      1318.49 cm**-1
  18:      1321.62 cm**-1
  19:      1404.48 cm**-1
  20:      1414.67 cm**-1
  21:      1420.87 cm**-1
  22:      1422.49 cm**-1
  23:      1728.39 cm**-1
  24:      2961.68 cm**-1
  25:      2976.08 cm**-1
  26:      3020.48 cm**-1
  27:      3046.67 cm**-1
  28:      3066.60 cm**-1
  29:      3086.75 cm**-1

IR SPECTRUM
-----------

 Mode    freq (cm**-1)   T**2         TX         TY         TZ
-------------------------------------------------------------------
   7:       160.02    0.083513  (  0.000072   0.000774   0.288986)
   8:       370.42    1.887611  (  0.164968   1.363963   0.000029)
   9:       480.03    0.194853  (  0.000715  -0.001603   0.441418)
  10:       509.25   12.117819  ( -3.480081   0.082795   0.000161)
  11:       762.58    2.701691  (  0.429169   1.586665   0.000145)
  12:       837.45    0.162626  ( -0.000114   0.000098   0.403269)
  13:       883.14   11.680544  ( -3.364127   0.602656  -0.000211)
  14:      1029.33    1.580225  ( -1.227462  -0.271225   0.000122)
  15:      1062.52    4.347648  ( -0.000404   0.000851  -2.085101)
  16:      1189.07   89.710399  ( -9.468688  -0.233106  -0.000097)
  17:      1318.49   47.624986  ( -6.863545  -0.718845  -0.000337)
  18:      1321.62   37.722497  (  4.846379  -3.772944   0.000051)
  19:      1404.48   21.581761  (  0.959426   4.545466   0.000717)
  20:      1414.67    1.396977  ( -0.000469  -0.001016   1.181937)
  21:      1420.87    2.405686  ( -0.733871  -1.366399  -0.008524)
  22:      1422.49   16.256446  (  0.001797   0.002719  -4.031927)
  23:      1728.39  167.648043  (  0.135575  12.947187   0.000848)
  24:      2961.68    1.977151  ( -0.547311   1.295222   0.000040)
  25:      2976.08    2.881853  (  0.747318   1.524260  -0.000002)
  26:      3020.48    5.979595  ( -0.000298  -0.000045   2.445321)
  27:      3046.67    3.088094  ( -0.000376  -0.000502   1.757297)
  28:      3066.60   12.974262  (  0.324441  -3.587339  -0.000004)
  29:      3086.75   10.023795  ( -2.647271  -1.736592  -0.000065)

--------------------------
THERMOCHEMISTRY AT 298.15K
--------------------------

Temperature         ... 298.15 K
Pressure            ... 1.00 atm
Total Mass          ... 58.08 AMU

Throughout the following assumptions are being made:
  (1) The electronic state is orbitally nondegenerate
  (2) There are no thermally accessible electronically excited states
  (3) Hindered rotations indicated by low frequency modes are not
      treated as such but are treated as vibrations and this may
      cause some error
  (4) All equations used are the standard statistical mechanics
      equations for an ideal gas
  (5) All vibrations are strictly harmonic

freq.     160.02  E(vib)   ...       0.39
freq.     370.42  E(vib)   ...       0.21
freq.     480.03  E(vib)   ...       0.15
freq.     509.25  E(vib)   ...       0.14
freq.     762.58  E(vib)   ...       0.06
freq.     837.45  E(vib)   ...       0.04
freq.     883.14  E(vib)   ...       0.04
freq.    1029.33  E(vib)   ...       0.02
freq.    1062.52  E(vib)   ...       0.02
freq.    1189.07  E(vib)   ...       0.01
freq.    1318.49  E(vib)   ...       0.01
freq.    1321.62  E(vib)   ...       0.01
freq.    1404.48  E(vib)   ...       0.00
freq.    1414.67  E(vib)   ...       0.00
freq.    1420.87  E(vib)   ...       0.00
freq.    1422.49  E(vib)   ...       0.00
freq.    1728.39  E(vib)   ...       0.00
freq.    2961.68  E(vib)   ...       0.00
freq.    2976.08  E(vib)   ...       0.00
freq.    3020.48  E(vib)   ...       0.00
freq.    3046.67  E(vib)   ...       0.00
freq.    3066.60  E(vib)   ...       0.00
freq.    3086.75  E(vib)   ...       0.00

------------
INNER ENERGY
------------

The inner energy is: U= E(el) + E(ZPE) + E(vib) + E(rot) + E(trans)
    E(el)   - is the total energy from the electronic structure calculation
              = E(kin-el) + E(nuc-el) + E(el-el) + E(nuc-nuc)
    E(ZPE)  - the the zero temperature vibrational energy from the frequency calculation
    E(vib)  - the the finite temperature correction to E(ZPE) due to population
              of excited vibrational states
    E(rot)  - is the rotational thermal energy
    E(trans)- is the translational thermal energy

Summary of contributions to the inner energy U:
Electronic energy                ...   -192.98722579 Eh
Zero point energy                ...      0.08081365 Eh      50.71 kcal/mol
Thermal vibrational correction   ...      0.00176756 Eh       1.11 kcal/mol
Thermal rotational correction    ...      0.00141627 Eh       0.89 kcal/mol
Thermal translational correction ...      0.00141627 Eh       0.89 kcal/mol
-----------------------------------------------------------------------
Total thermal energy                   -192.90181203 Eh

Summary of corrections to the electronic energy:
(perhaps to be used in another calculation)
Total thermal correction                  0.00460011 Eh       2.89 kcal/mol
Non-thermal (ZPE) correction              0.08081365 Eh      50.71 kcal/mol
-----------------------------------------------------------------------
Total correction                          0.08541376 Eh      53.60 kcal/mol

--------
ENTHALPY
--------

The enthalpy is H = U + kB*T
                kB is Boltzmann's constant
Total free energy                 ...   -192.90181203 Eh
Thermal Enthalpy correction       ...      0.00094421 Eh       0.59 kcal/mol
-----------------------------------------------------------------------
Total Enthalpy                    ...   -192.90086783 Eh

Vibrational entropy computed according to the QRRHO of S. Grimme
Chem.Eur.J. 2012 18 9955

-------
ENTROPY
-------

The entropy contributions are T*S = T*(S(el)+S(vib)+S(rot)+S(trans)
     S(el)   - electronic entropy
     S(vib)  - vibrational entropy
     S(rot)  - rotational entropy
     S(trans)- translational entropy
The entropies will be listed as mutliplied by the temperature to get
units of energy

Electronic entropy                ...      0.00000000 Eh      0.00 kcal/mol
Vibrational entropy               ...      0.00277767 Eh      1.74 kcal/mol
Rotational entropy                ...      0.01044317 Eh      6.55 kcal/mol
Translational entropy             ...      0.01810171 Eh     11.36 kcal/mol
-----------------------------------------------------------------------
Final entropy term                ...      0.03132256 Eh     19.66 kcal/mol

CAUTION: The rotational entropy is not quite correctly treated here
         because it includes a symmetry number that is not yet correctly
         implemented in ORCA!
For a nonlinear molecule the correct rotational entropy is:
    S(rot) = R*(ln(qrot/sn)+1.5)
    R    = 8.31441 J/mol/K = 1.987191683e-3 kcal/mol/K
    qrot = 42581.3325563
    sn is the rotational symmetry number. We have assumed 3 here
       if it is different for your molecule then you should correct
       the printed rotational entropy by manually evaluating the equation
       as given above

For convenience we print out the resulting values for sn=1 - 12:
 sn= 1  qrot/sn=   42581.3326 T*S(rot)=     7.20 kcal/mol T*S(tot)=    20.31 kcal/mol
 sn= 2  qrot/sn=   21290.6663 T*S(rot)=     6.79 kcal/mol T*S(tot)=    19.90 kcal/mol
 sn= 3  qrot/sn=   14193.7775 T*S(rot)=     6.55 kcal/mol T*S(tot)=    19.66 kcal/mol
 sn= 4  qrot/sn=   10645.3331 T*S(rot)=     6.38 kcal/mol T*S(tot)=    19.48 kcal/mol
 sn= 5  qrot/sn=    8516.2665 T*S(rot)=     6.25 kcal/mol T*S(tot)=    19.35 kcal/mol
 sn= 6  qrot/sn=    7096.8888 T*S(rot)=     6.14 kcal/mol T*S(tot)=    19.24 kcal/mol
 sn= 7  qrot/sn=    6083.0475 T*S(rot)=     6.05 kcal/mol T*S(tot)=    19.15 kcal/mol
 sn= 8  qrot/sn=    5322.6666 T*S(rot)=     5.97 kcal/mol T*S(tot)=    19.07 kcal/mol
 sn= 9  qrot/sn=    4731.2592 T*S(rot)=     5.90 kcal/mol T*S(tot)=    19.00 kcal/mol
 sn=10  qrot/sn=    4258.1333 T*S(rot)=     5.84 kcal/mol T*S(tot)=    18.94 kcal/mol
 sn=11  qrot/sn=    3871.0302 T*S(rot)=     5.78 kcal/mol T*S(tot)=    18.89 kcal/mol
 sn=12  qrot/sn=    3548.4444 T*S(rot)=     5.73 kcal/mol T*S(tot)=    18.83 kcal/mol

-------------------
GIBBS FREE ENTHALPY
-------------------

The Gibbs free enthalpy is G = H - T*S

Total enthalpy                    ...   -192.90086783 Eh
Total entropy correction          ...     -0.03132256 Eh    -19.66 kcal/mol
-----------------------------------------------------------------------
Final Gibbs free enthalpy         ...   -192.93219038 Eh

For completeness - the Gibbs free enthalpy minus the electronic energy
G-E(el)                           ...      0.05503541 Eh     34.54 kcal/mol

                             ****ORCA TERMINATED NORMALLY****
TOTAL RUN TIME: 0 days 0 hours 3 minutes 15 seconds 288 msec
