                         Program Version 4.0.1.2 - RELEASE -
|  1> # avogadro generated ORCA input file
|  2> # Basic Mode
|  3> #
|  4> ! PBE OPT def2-TZVP
|  5>
|  6> * xyzfile 0 1 C3H6O.xyz
|  7>
|  8>
|  9>                          ****END OF INPUT****
 Total Charge           Charge          ....    0
 Multiplicity           Mult            ....    1
 Number of Electrons    NEL             ....   32
FINAL SINGLE POINT ENERGY      -192.508971049334
FINAL SINGLE POINT ENERGY      -192.588601057205
FINAL SINGLE POINT ENERGY      -192.667759654095
FINAL SINGLE POINT ENERGY      -192.739552748951
FINAL SINGLE POINT ENERGY      -192.789606479508
FINAL SINGLE POINT ENERGY      -192.823567830323
FINAL SINGLE POINT ENERGY      -192.852665104447
FINAL SINGLE POINT ENERGY      -192.877651937287
FINAL SINGLE POINT ENERGY      -192.896351608958
FINAL SINGLE POINT ENERGY      -192.907458623853
FINAL SINGLE POINT ENERGY      -192.984406690718
FINAL SINGLE POINT ENERGY      -192.987052850302
FINAL SINGLE POINT ENERGY      -192.987211348948
FINAL SINGLE POINT ENERGY      -192.987222538960
FINAL SINGLE POINT ENERGY      -192.987225730533
FINAL SINGLE POINT ENERGY      -192.987219078245
FINAL SINGLE POINT ENERGY      -192.987224864559
FINAL SINGLE POINT ENERGY      -192.987224800811
FINAL SINGLE POINT ENERGY      -192.987225788818
                    ***********************HURRAY********************

CARTESIAN COORDINATES (ANGSTROEM)
---------------------------------
  O      0.312968    1.584383    0.000125
  C      0.306360    0.365282    0.000028
  C     -1.003087   -0.410108   -0.000010
  H     -0.864889   -1.499037    0.000048
  H     -1.590301   -0.117293    0.882970
  H     -1.590211   -0.117378   -0.883079
  H      1.613010   -1.105824   -0.882175
  C      1.584386   -0.445510   -0.000017
  H      2.457614    0.215848   -0.000074
  H      1.613090   -1.105763    0.882185

 Multiplicity           Mult            ....    1
 Number of Electrons    NEL             ....   32
 Basis Dimension        Dim             ....  160

ORBITAL ENERGIES
----------------

  NO   OCC          E(Eh)            E(eV)
   0   2.0000     -18.736117      -509.8357
   1   2.0000      -9.972039      -271.3530
   2   2.0000      -9.891200      -269.1532
   3   2.0000      -9.890407      -269.1317
   4   2.0000      -0.950648       -25.8684
   5   2.0000      -0.699301       -19.0289
   6   2.0000      -0.645572       -17.5669
   7   2.0000      -0.479550       -13.0492
   8   2.0000      -0.414504       -11.2792
   9   2.0000      -0.411433       -11.1957
  10   2.0000      -0.404509       -11.0072
  11   2.0000      -0.363707        -9.8970
  12   2.0000      -0.351181        -9.5561
  13   2.0000      -0.336669        -9.1612
  14   2.0000      -0.310078        -8.4377
  15   2.0000      -0.206685        -5.6242
  16   0.0000      -0.060696        -1.6516
  17   0.0000       0.008746         0.2380
  18   0.0000       0.057143         1.5550
  19   0.0000       0.075362         2.0507
  20   0.0000       0.077540         2.1100

MULLIKEN ATOMIC CHARGES
-----------------------
   0 O :   -0.246806
   1 C :    0.167836
   2 C :   -0.367839
   3 H :    0.125893
   4 H :    0.144441
   5 H :    0.144438
   6 H :    0.135847
   7 C :   -0.370389
   8 H :    0.130734
   9 H :    0.135847
Sum of atomic charges:   -0.0000000

LOEWDIN ATOMIC CHARGES
----------------------
   0 O :    0.137070
   1 C :   -0.393297
   2 C :   -0.285048
   3 H :    0.126126
   4 H :    0.143279
   5 H :    0.143280
   6 H :    0.139871
   7 C :   -0.283337
   8 H :    0.132181
   9 H :    0.139875

  Mayer bond orders larger than 0.1
B(  0-O ,  1-C ) :   2.1683 B(  1-C ,  2-C ) :   0.9383 B(  1-C ,  7-C ) :   0.9839
B(  2-C ,  3-H ) :   0.9523 B(  2-C ,  4-H ) :   0.9465 B(  2-C ,  5-H ) :   0.9465
B(  6-H ,  7-C ) :   0.9348 B(  7-C ,  8-H ) :   0.9627 B(  7-C ,  9-H ) :   0.9348

FINAL SINGLE POINT ENERGY      -192.987225779452

DIPOLE MOMENT
-------------
                                X             Y             Z
Electronic contribution:      0.11168       3.89361       0.00022
Nuclear contribution   :     -0.14142      -5.00106      -0.00030
                        -----------------------------------------
Total Dipole Moment    :     -0.02974      -1.10745      -0.00008
                        -----------------------------------------
Magnitude (a.u.)       :      1.10785
Magnitude (Debye)      :      2.81592

                             ****ORCA TERMINATED NORMALLY****
TOTAL RUN TIME: 0 days 0 hours 8 minutes 37 seconds 322 msec
