                         Program Version 4.0.1.2 - RELEASE -
|  1> # avogadro generated ORCA input file
|  2> # Basic Mode
|  3> #
|  4> ! PBE FREQ def2-TZVP
|  5>
|  6> * xyzfile 0 1 opt.xyz
|  7>
|  8>
|  9>                          ****END OF INPUT****

CARTESIAN COORDINATES (ANGSTROEM)
---------------------------------
  W     -0.644700    0.667212   -0.094542
  O     -0.761483   -1.069937   -0.776112
  H     -0.761901   -1.516986   -1.632812
  O     -2.503989    0.899083    0.154255
  H     -3.008719    0.688203    0.954625
  O     -0.417528    2.515985   -0.376218
  H      0.191474    2.887038   -1.034307
  O      1.064741    0.391901    0.641826
  H      1.329177    0.663092    1.531665

 Total Charge           Charge          ....    0
 Multiplicity           Mult            ....    1
 Number of Electrons    NEL             ....   50
 Basis Dimension        Dim             ....  188

ORBITAL ENERGIES
----------------

  NO   OCC          E(Eh)            E(eV)
   0   2.0000     -18.765979      -510.6482
   1   2.0000     -18.765092      -510.6241
   2   2.0000     -18.762595      -510.5562
   3   2.0000     -18.760890      -510.5098
   4   2.0000      -2.877311       -78.2956
   5   2.0000      -1.581036       -43.0222
   6   2.0000      -1.578390       -42.9502
   7   2.0000      -1.536945       -41.8224
   8   2.0000      -0.912244       -24.8234
   9   2.0000      -0.904911       -24.6239
  10   2.0000      -0.889604       -24.2074
  11   2.0000      -0.888489       -24.1770
  12   2.0000      -0.497348       -13.5335
  13   2.0000      -0.488624       -13.2961
  14   2.0000      -0.434597       -11.8260
  15   2.0000      -0.426347       -11.6015
  16   2.0000      -0.360369        -9.8061
  17   2.0000      -0.334614        -9.1053
  18   2.0000      -0.332078        -9.0363
  19   2.0000      -0.312595        -8.5062
  20   2.0000      -0.305776        -8.3206
  21   2.0000      -0.290553        -7.9063
  22   2.0000      -0.280758        -7.6398
  23   2.0000      -0.264711        -7.2031
  24   2.0000      -0.139097        -3.7850
  25   0.0000      -0.072646        -1.9768
  26   0.0000      -0.067626        -1.8402
  27   0.0000      -0.061888        -1.6841
  28   0.0000      -0.016027        -0.4361
  29   0.0000       0.002322         0.0632

MULLIKEN ATOMIC CHARGES
-----------------------
   0 W :    0.787402
   1 O :   -0.546624
   2 H :    0.342375
   3 O :   -0.544495
   4 H :    0.343967
   5 O :   -0.532927
   6 H :    0.342851
   7 O :   -0.537085
   8 H :    0.344537
Sum of atomic charges:    0.0000000

LOEWDIN ATOMIC CHARGES
----------------------
   0 W :    0.340559
   1 O :   -0.248233
   2 H :    0.171834
   3 O :   -0.255827
   4 H :    0.169547
   5 O :   -0.257284
   6 H :    0.168172
   7 O :   -0.255668
   8 H :    0.166899

  Mayer bond orders larger than 0.1
B(  0-W ,  1-O ) :   1.2122 B(  0-W ,  3-O ) :   1.2077 B(  0-W ,  5-O ) :   1.2202
B(  0-W ,  7-O ) :   1.2179 B(  1-O ,  2-H ) :   0.8687 B(  3-O ,  4-H ) :   0.8737
B(  5-O ,  6-H ) :   0.8748 B(  7-O ,  8-H ) :   0.8735

FINAL SINGLE POINT ENERGY      -370.401850169375

DIPOLE MOMENT
-------------
                                X             Y             Z
Electronic contribution:      0.07952      -0.79569      -0.45760
Nuclear contribution   :      0.13735       0.70092       0.49813
                        -----------------------------------------
Total Dipole Moment    :      0.21687      -0.09476       0.04053
                        -----------------------------------------
Magnitude (a.u.)       :      0.24012
Magnitude (Debye)      :      0.61034

VIBRATIONAL FREQUENCIES
-----------------------

   0:         0.00 cm**-1
   1:         0.00 cm**-1
   2:         0.00 cm**-1
   3:         0.00 cm**-1
   4:         0.00 cm**-1
   5:         0.00 cm**-1
   6:       104.37 cm**-1
   7:       152.08 cm**-1
   8:       197.69 cm**-1
   9:       209.20 cm**-1
  10:       212.53 cm**-1
  11:       293.91 cm**-1
  12:       297.41 cm**-1
  13:       313.62 cm**-1
  14:       378.49 cm**-1
  15:       539.09 cm**-1
  16:       569.40 cm**-1
  17:       601.56 cm**-1
  18:       654.42 cm**-1
  19:       698.33 cm**-1
  20:       711.88 cm**-1
  21:       718.83 cm**-1
  22:       738.31 cm**-1
  23:      3750.69 cm**-1
  24:      3762.62 cm**-1
  25:      3794.87 cm**-1
  26:      3800.26 cm**-1

IR SPECTRUM
-----------

 Mode    freq (cm**-1)   T**2         TX         TY         TZ
-------------------------------------------------------------------
   6:       104.37   75.613150  ( -8.071949  -2.092357  -2.465527)
   7:       152.08   16.309776  ( -3.912265   0.383008  -0.925884)
   8:       197.69   31.951676  (  0.684277  -4.540389   3.296712)
   9:       209.20    5.340076  ( -1.881813   1.187388   0.623671)
  10:       212.53    9.170850  (  2.189299  -2.058571   0.374305)
  11:       293.91   36.671275  ( -3.839146   4.669011   0.364099)
  12:       297.41   71.684567  ( -1.642428  -6.939945   4.563350)
  13:       313.62   97.110422  ( -0.899190   9.245195   3.290629)
  14:       378.49   77.807637  ( -7.188742   3.338740  -3.870715)
  15:       539.09  236.700097  (  1.077654 -15.302852  -1.166828)
  16:       569.40  380.764409  ( 18.814681  -2.743762   4.386792)
  17:       601.56  168.418562  (  8.864503   9.108925  -2.620428)
  18:       654.42   70.197370  (  1.388705  -8.155702  -1.324157)
  19:       698.33   58.986306  ( -5.979597   4.683230  -1.139333)
  20:       711.88   20.009010  ( -1.756430  -4.103479  -0.292272)
  21:       718.83   37.721568  ( -1.517546  -5.173174  -2.942260)
  22:       738.31    9.220142  (  1.366929  -2.485189  -1.084196)
  23:      3750.69  201.811326  (  5.996069   9.766385  -8.395011)
  24:      3762.62  188.434370  ( 10.806372  -0.473256  -8.451788)
  25:      3794.87  273.779496  ( -7.692143  -4.616116 -13.903306)
  26:      3800.26  135.118854  ( -1.745950   9.292986   6.760985)

--------------------------
THERMOCHEMISTRY AT 298.15K
--------------------------

Temperature         ... 298.15 K
Pressure            ... 1.00 atm
Total Mass          ... 251.88 AMU

Throughout the following assumptions are being made:
  (1) The electronic state is orbitally nondegenerate
  (2) There are no thermally accessible electronically excited states
  (3) Hindered rotations indicated by low frequency modes are not
      treated as such but are treated as vibrations and this may
      cause some error
  (4) All equations used are the standard statistical mechanics
      equations for an ideal gas
  (5) All vibrations are strictly harmonic

freq.     104.37  E(vib)   ...       0.46
freq.     152.08  E(vib)   ...       0.40
freq.     197.69  E(vib)   ...       0.35
freq.     209.20  E(vib)   ...       0.34
freq.     212.53  E(vib)   ...       0.34
freq.     293.91  E(vib)   ...       0.27
freq.     297.41  E(vib)   ...       0.27
freq.     313.62  E(vib)   ...       0.25
freq.     378.49  E(vib)   ...       0.21
freq.     539.09  E(vib)   ...       0.12
freq.     569.40  E(vib)   ...       0.11
freq.     601.56  E(vib)   ...       0.10
freq.     654.42  E(vib)   ...       0.08
freq.     698.33  E(vib)   ...       0.07
freq.     711.88  E(vib)   ...       0.07
freq.     718.83  E(vib)   ...       0.07
freq.     738.31  E(vib)   ...       0.06
freq.    3750.69  E(vib)   ...       0.00
freq.    3762.62  E(vib)   ...       0.00
freq.    3794.87  E(vib)   ...       0.00
freq.    3800.26  E(vib)   ...       0.00

------------
INNER ENERGY
------------

The inner energy is: U= E(el) + E(ZPE) + E(vib) + E(rot) + E(trans)
    E(el)   - is the total energy from the electronic structure calculation
              = E(kin-el) + E(nuc-el) + E(el-el) + E(nuc-nuc)
    E(ZPE)  - the the zero temperature vibrational energy from the frequency calculation
    E(vib)  - the the finite temperature correction to E(ZPE) due to population
              of excited vibrational states
    E(rot)  - is the rotational thermal energy
    E(trans)- is the translational thermal energy

Summary of contributions to the inner energy U:
Electronic energy                ...   -370.40185017 Eh
Zero point energy                ...      0.05125781 Eh      32.16 kcal/mol
Thermal vibrational correction   ...      0.00569459 Eh       3.57 kcal/mol
Thermal rotational correction    ...      0.00141627 Eh       0.89 kcal/mol
Thermal translational correction ...      0.00141627 Eh       0.89 kcal/mol
-----------------------------------------------------------------------
Total thermal energy                   -370.34206523 Eh

Summary of corrections to the electronic energy:
(perhaps to be used in another calculation)
Total thermal correction                  0.00852713 Eh       5.35 kcal/mol
Non-thermal (ZPE) correction              0.05125781 Eh      32.16 kcal/mol
-----------------------------------------------------------------------
Total correction                          0.05978494 Eh      37.52 kcal/mol

--------
ENTHALPY
--------

The enthalpy is H = U + kB*T
                kB is Boltzmann's constant
Total free energy                 ...   -370.34206523 Eh
Thermal Enthalpy correction       ...      0.00094421 Eh       0.59 kcal/mol
-----------------------------------------------------------------------
Total Enthalpy                    ...   -370.34112102 Eh

Vibrational entropy computed according to the QRRHO of S. Grimme
Chem.Eur.J. 2012 18 9955

-------
ENTROPY
-------

The entropy contributions are T*S = T*(S(el)+S(vib)+S(rot)+S(trans)
     S(el)   - electronic entropy
     S(vib)  - vibrational entropy
     S(rot)  - rotational entropy
     S(trans)- translational entropy
The entropies will be listed as mutliplied by the temperature to get
units of energy

Electronic entropy                ...      0.00000000 Eh      0.00 kcal/mol
Vibrational entropy               ...      0.00963937 Eh      6.05 kcal/mol
Rotational entropy                ...      0.01169487 Eh      7.34 kcal/mol
Translational entropy             ...      0.02017956 Eh     12.66 kcal/mol
-----------------------------------------------------------------------
Final entropy term                ...      0.04151379 Eh     26.05 kcal/mol

CAUTION: The rotational entropy is not quite correctly treated here
         because it includes a symmetry number that is not yet correctly
         implemented in ORCA!
For a nonlinear molecule the correct rotational entropy is:
    S(rot) = R*(ln(qrot/sn)+1.5)
    R    = 8.31441 J/mol/K = 1.987191683e-3 kcal/mol/K
    qrot = 160310.2858781
    sn is the rotational symmetry number. We have assumed 3 here
       if it is different for your molecule then you should correct
       the printed rotational entropy by manually evaluating the equation
       as given above

For convenience we print out the resulting values for sn=1 - 12:
 sn= 1  qrot/sn=  160310.2859 T*S(rot)=     7.99 kcal/mol T*S(tot)=    26.70 kcal/mol
 sn= 2  qrot/sn=   80155.1429 T*S(rot)=     7.58 kcal/mol T*S(tot)=    26.29 kcal/mol
 sn= 3  qrot/sn=   53436.7620 T*S(rot)=     7.34 kcal/mol T*S(tot)=    26.05 kcal/mol
 sn= 4  qrot/sn=   40077.5715 T*S(rot)=     7.17 kcal/mol T*S(tot)=    25.88 kcal/mol
 sn= 5  qrot/sn=   32062.0572 T*S(rot)=     7.04 kcal/mol T*S(tot)=    25.75 kcal/mol
 sn= 6  qrot/sn=   26718.3810 T*S(rot)=     6.93 kcal/mol T*S(tot)=    25.64 kcal/mol
 sn= 7  qrot/sn=   22901.4694 T*S(rot)=     6.84 kcal/mol T*S(tot)=    25.55 kcal/mol
 sn= 8  qrot/sn=   20038.7857 T*S(rot)=     6.76 kcal/mol T*S(tot)=    25.47 kcal/mol
 sn= 9  qrot/sn=   17812.2540 T*S(rot)=     6.69 kcal/mol T*S(tot)=    25.40 kcal/mol
 sn=10  qrot/sn=   16031.0286 T*S(rot)=     6.63 kcal/mol T*S(tot)=    25.34 kcal/mol
 sn=11  qrot/sn=   14573.6624 T*S(rot)=     6.57 kcal/mol T*S(tot)=    25.28 kcal/mol
 sn=12  qrot/sn=   13359.1905 T*S(rot)=     6.52 kcal/mol T*S(tot)=    25.23 kcal/mol

-------------------
GIBBS FREE ENTHALPY
-------------------

The Gibbs free enthalpy is G = H - T*S

Total enthalpy                    ...   -370.34112102 Eh
Total entropy correction          ...     -0.04151379 Eh    -26.05 kcal/mol
-----------------------------------------------------------------------
Final Gibbs free enthalpy         ...   -370.38263481 Eh

For completeness - the Gibbs free enthalpy minus the electronic energy
G-E(el)                           ...      0.01921536 Eh     12.06 kcal/mol

                             ****ORCA TERMINATED NORMALLY****
TOTAL RUN TIME: 0 days 0 hours 5 minutes 6 seconds 152 msec
