                         Program Version 4.0.1.2 - RELEASE -
|  1> # avogadro generated ORCA input file
|  2> # Basic Mode
|  3> #
|  4> ! PBE OPT def2-TZVP
|  5>
|  6> * xyzfile 0 1 H4O4W.xyz
|  7>
|  8>
|  9>                          ****END OF INPUT****
 Total Charge           Charge          ....    0
 Multiplicity           Mult            ....    1
 Number of Electrons    NEL             ....   50
 Basis Dimension        Dim             ....  188
FINAL SINGLE POINT ENERGY      -370.218485989119   (SCF not fully converged!)
FINAL SINGLE POINT ENERGY      -370.262506334958   (SCF not fully converged!)
FINAL SINGLE POINT ENERGY      -370.301582453297
FINAL SINGLE POINT ENERGY      -370.333552668511
FINAL SINGLE POINT ENERGY      -370.357989138234
FINAL SINGLE POINT ENERGY      -370.381737357365
FINAL SINGLE POINT ENERGY      -370.390633395619
FINAL SINGLE POINT ENERGY      -370.392424842138
FINAL SINGLE POINT ENERGY      -370.392742566307
FINAL SINGLE POINT ENERGY      -370.394716373636
FINAL SINGLE POINT ENERGY      -370.401900453737
FINAL SINGLE POINT ENERGY      -370.401907427742
FINAL SINGLE POINT ENERGY      -370.401988076559
FINAL SINGLE POINT ENERGY      -370.402141269089
FINAL SINGLE POINT ENERGY      -370.402351282142
FINAL SINGLE POINT ENERGY      -370.402513639540
FINAL SINGLE POINT ENERGY      -370.402546137113
FINAL SINGLE POINT ENERGY      -370.402555930785
FINAL SINGLE POINT ENERGY      -370.402580027861

CARTESIAN COORDINATES (ANGSTROEM)
---------------------------------
  W     -0.670203    0.664820   -0.084761
  O     -0.774682   -1.115783   -0.703362
  H     -0.690875   -1.414836   -1.619640
  O     -2.522374    0.892494    0.150103
  H     -3.050451    0.706775    0.938703
  O     -0.422848    2.513238   -0.387379
  H      0.186820    2.880520   -1.044652
  O      1.058354    0.391178    0.615180
  H      1.373329    0.607184    1.504188

FINAL SINGLE POINT ENERGY      -370.402600922749

DIPOLE MOMENT
-------------
                                X             Y             Z
Electronic contribution:      0.03146      -0.82196      -0.41706
Nuclear contribution   :      0.13735       0.70092       0.49813
                        -----------------------------------------
Total Dipole Moment    :      0.16881      -0.12104       0.08107
                        -----------------------------------------
Magnitude (a.u.)       :      0.22298
Magnitude (Debye)      :      0.56676

                             ****ORCA TERMINATED NORMALLY****
TOTAL RUN TIME: 0 days 0 hours 21 minutes 50 seconds 912 msec
