                         Program Version 4.0.1.2 - RELEASE -
|  1> # avogadro generated ORCA input file
|  2> # Basic Mode
|  3> #
|  4> ! PBE FREQ def2-TZVP
|  5>
|  6> * xyzfile 0 1 opt.xyz
|  7>
|  8>
|  9>                          ****END OF INPUT****

CARTESIAN COORDINATES (ANGSTROEM)
---------------------------------
  C     -4.611649   -0.526017   -1.149647
  C     -3.294982   -0.364270   -1.022547
  H     -5.123300   -0.347700   -2.097870
  H     -5.236330   -0.841698   -0.311391
  H     -2.671646   -0.048050   -1.861520
  H     -2.784383   -0.542175   -0.073715

 Total Charge           Charge          ....    0
 Multiplicity           Mult            ....    1
 Number of Electrons    NEL             ....   16
 Basis Dimension        Dim             ....   86

ORBITAL ENERGIES
----------------

  NO   OCC          E(Eh)            E(eV)
   0   2.0000      -9.884374      -268.9675
   1   2.0000      -9.883730      -268.9500
   2   2.0000      -0.689187       -18.7537
   3   2.0000      -0.521540       -14.1918
   4   2.0000      -0.419760       -11.4222
   5   2.0000      -0.373695       -10.1688
   6   2.0000      -0.311653        -8.4805
   7   2.0000      -0.247463        -6.7338
   8   0.0000      -0.036603        -0.9960
   9   0.0000       0.044853         1.2205
  10   0.0000       0.067101         1.8259
  11   0.0000       0.072440         1.9712
  12   0.0000       0.134183         3.6513

MULLIKEN ATOMIC CHARGES
-----------------------
   0 C :   -0.228161
   1 C :   -0.228210
   2 H :    0.114865
   3 H :    0.113304
   4 H :    0.113310
   5 H :    0.114892
Sum of atomic charges:    0.0000000

LOEWDIN ATOMIC CHARGES
----------------------
   0 C :   -0.242161
   1 C :   -0.242133
   2 H :    0.120987
   3 H :    0.121090
   4 H :    0.121163
   5 H :    0.121053

  Mayer bond orders larger than 0.1
B(  0-C ,  1-C ) :   1.9967 B(  0-C ,  2-H ) :   0.9522 B(  0-C ,  3-H ) :   0.9510
B(  1-C ,  4-H ) :   0.9510 B(  1-C ,  5-H ) :   0.9522

FINAL SINGLE POINT ENERGY       -78.500532467481

DIPOLE MOMENT
-------------
                                X             Y             Z
Electronic contribution:      0.00167      -0.00047       0.00014
Nuclear contribution   :     -0.00193       0.00076      -0.00009
                        -----------------------------------------
Total Dipole Moment    :     -0.00026       0.00029       0.00006
                        -----------------------------------------
Magnitude (a.u.)       :      0.00039
Magnitude (Debye)      :      0.00100

VIBRATIONAL FREQUENCIES
-----------------------

   0:         0.00 cm**-1
   1:         0.00 cm**-1
   2:         0.00 cm**-1
   3:         0.00 cm**-1
   4:         0.00 cm**-1
   5:         0.00 cm**-1
   6:       806.03 cm**-1
   7:       932.99 cm**-1
   8:       937.84 cm**-1
   9:      1033.77 cm**-1
  10:      1201.61 cm**-1
  11:      1340.81 cm**-1
  12:      1423.58 cm**-1
  13:      1641.92 cm**-1
  14:      3061.76 cm**-1
  15:      3074.82 cm**-1
  16:      3133.11 cm**-1
  17:      3161.26 cm**-1

IR SPECTRUM
-----------

 Mode    freq (cm**-1)   T**2         TX         TY         TZ
-------------------------------------------------------------------
   6:       806.03    0.401477  (  0.033229   0.189421  -0.603732)
   7:       932.99    0.717049  (  0.124813  -0.806231  -0.226854)
   8:       937.84   97.939837  (  1.354695  -9.433365  -2.667633)
   9:      1033.77    0.013214  ( -0.114176   0.001162  -0.013278)
  10:      1201.61    0.000011  ( -0.001055   0.000728  -0.003136)
  11:      1340.81    0.000127  (  0.010670   0.003518   0.000818)
  12:      1423.58    8.918928  ( -2.953630  -0.353884  -0.264128)
  13:      1641.92    0.000009  (  0.002766   0.000234   0.000961)
  14:      3061.76   17.384211  (  4.113945   0.488014   0.470646)
  15:      3074.82    0.000020  ( -0.003460   0.001286  -0.002461)
  16:      3133.11    0.007553  (  0.002120   0.021499  -0.084180)
  17:      3161.26   20.277399  ( -0.271651  -1.127802   4.351053)

--------------------------
THERMOCHEMISTRY AT 298.15K
--------------------------

Temperature         ... 298.15 K
Pressure            ... 1.00 atm
Total Mass          ... 28.05 AMU

Throughout the following assumptions are being made:
  (1) The electronic state is orbitally nondegenerate
  (2) There are no thermally accessible electronically excited states
  (3) Hindered rotations indicated by low frequency modes are not
      treated as such but are treated as vibrations and this may
      cause some error
  (4) All equations used are the standard statistical mechanics
      equations for an ideal gas
  (5) All vibrations are strictly harmonic

freq.     806.03  E(vib)   ...       0.05
freq.     932.99  E(vib)   ...       0.03
freq.     937.84  E(vib)   ...       0.03
freq.    1033.77  E(vib)   ...       0.02
freq.    1201.61  E(vib)   ...       0.01
freq.    1340.81  E(vib)   ...       0.01
freq.    1423.58  E(vib)   ...       0.00
freq.    1641.92  E(vib)   ...       0.00
freq.    3061.76  E(vib)   ...       0.00
freq.    3074.82  E(vib)   ...       0.00
freq.    3133.11  E(vib)   ...       0.00
freq.    3161.26  E(vib)   ...       0.00

------------
INNER ENERGY
------------

The inner energy is: U= E(el) + E(ZPE) + E(vib) + E(rot) + E(trans)
    E(el)   - is the total energy from the electronic structure calculation
              = E(kin-el) + E(nuc-el) + E(el-el) + E(nuc-nuc)
    E(ZPE)  - the the zero temperature vibrational energy from the frequency calculation
    E(vib)  - the the finite temperature correction to E(ZPE) due to population
              of excited vibrational states
    E(rot)  - is the rotational thermal energy
    E(trans)- is the translational thermal energy

Summary of contributions to the inner energy U:
Electronic energy                ...    -78.50053247 Eh
Zero point energy                ...      0.04954905 Eh      31.09 kcal/mol
Thermal vibrational correction   ...      0.00023904 Eh       0.15 kcal/mol
Thermal rotational correction    ...      0.00141627 Eh       0.89 kcal/mol
Thermal translational correction ...      0.00141627 Eh       0.89 kcal/mol
-----------------------------------------------------------------------
Total thermal energy                    -78.44791183 Eh

Summary of corrections to the electronic energy:
(perhaps to be used in another calculation)
Total thermal correction                  0.00307159 Eh       1.93 kcal/mol
Non-thermal (ZPE) correction              0.04954905 Eh      31.09 kcal/mol
-----------------------------------------------------------------------
Total correction                          0.05262063 Eh      33.02 kcal/mol

--------
ENTHALPY
--------

The enthalpy is H = U + kB*T
                kB is Boltzmann's constant
Total free energy                 ...    -78.44791183 Eh
Thermal Enthalpy correction       ...      0.00094421 Eh       0.59 kcal/mol
-----------------------------------------------------------------------
Total Enthalpy                    ...    -78.44696763 Eh

Vibrational entropy computed according to the QRRHO of S. Grimme
Chem.Eur.J. 2012 18 9955

-------
ENTROPY
-------

The entropy contributions are T*S = T*(S(el)+S(vib)+S(rot)+S(trans)
     S(el)   - electronic entropy
     S(vib)  - vibrational entropy
     S(rot)  - rotational entropy
     S(trans)- translational entropy
The entropies will be listed as mutliplied by the temperature to get
units of energy

Electronic entropy                ...      0.00000000 Eh      0.00 kcal/mol
Vibrational entropy               ...      0.00029163 Eh      0.18 kcal/mol
Rotational entropy                ...      0.00781773 Eh      4.91 kcal/mol
Translational entropy             ...      0.01707111 Eh     10.71 kcal/mol
-----------------------------------------------------------------------
Final entropy term                ...      0.02518046 Eh     15.80 kcal/mol

CAUTION: The rotational entropy is not quite correctly treated here
         because it includes a symmetry number that is not yet correctly
         implemented in ORCA!
For a nonlinear molecule the correct rotational entropy is:
    S(rot) = R*(ln(qrot/sn)+1.5)
    R    = 8.31441 J/mol/K = 1.987191683e-3 kcal/mol/K
    qrot = 2639.9546031
    sn is the rotational symmetry number. We have assumed 3 here
       if it is different for your molecule then you should correct
       the printed rotational entropy by manually evaluating the equation
       as given above

For convenience we print out the resulting values for sn=1 - 12:
 sn= 1  qrot/sn=    2639.9546 T*S(rot)=     5.56 kcal/mol T*S(tot)=    16.45 kcal/mol
 sn= 2  qrot/sn=    1319.9773 T*S(rot)=     5.15 kcal/mol T*S(tot)=    16.04 kcal/mol
 sn= 3  qrot/sn=     879.9849 T*S(rot)=     4.91 kcal/mol T*S(tot)=    15.80 kcal/mol
 sn= 4  qrot/sn=     659.9887 T*S(rot)=     4.74 kcal/mol T*S(tot)=    15.63 kcal/mol
 sn= 5  qrot/sn=     527.9909 T*S(rot)=     4.60 kcal/mol T*S(tot)=    15.50 kcal/mol
 sn= 6  qrot/sn=     439.9924 T*S(rot)=     4.50 kcal/mol T*S(tot)=    15.39 kcal/mol
 sn= 7  qrot/sn=     377.1364 T*S(rot)=     4.40 kcal/mol T*S(tot)=    15.30 kcal/mol
 sn= 8  qrot/sn=     329.9943 T*S(rot)=     4.32 kcal/mol T*S(tot)=    15.22 kcal/mol
 sn= 9  qrot/sn=     293.3283 T*S(rot)=     4.25 kcal/mol T*S(tot)=    15.15 kcal/mol
 sn=10  qrot/sn=     263.9955 T*S(rot)=     4.19 kcal/mol T*S(tot)=    15.09 kcal/mol
 sn=11  qrot/sn=     239.9959 T*S(rot)=     4.14 kcal/mol T*S(tot)=    15.03 kcal/mol
 sn=12  qrot/sn=     219.9962 T*S(rot)=     4.08 kcal/mol T*S(tot)=    14.98 kcal/mol

-------------------
GIBBS FREE ENTHALPY
-------------------

The Gibbs free enthalpy is G = H - T*S

Total enthalpy                    ...    -78.44696763 Eh
Total entropy correction          ...     -0.02518046 Eh    -15.80 kcal/mol
-----------------------------------------------------------------------
Final Gibbs free enthalpy         ...    -78.47214809 Eh

For completeness - the Gibbs free enthalpy minus the electronic energy
G-E(el)                           ...      0.02838438 Eh     17.81 kcal/mol

                             ****ORCA TERMINATED NORMALLY****
TOTAL RUN TIME: 0 days 0 hours 0 minutes 32 seconds 313 msec
