                         Program Version 4.0.1.2 - RELEASE -
|  1> # avogadro generated ORCA input file
|  2> # Basic Mode
|  3> #
|  4> ! PBE OPT def2-TZVP
|  5>
|  6> * xyzfile 0 1 C2H4.xyz
|  7>
|  8>
|  9>                          ****END OF INPUT****
 Total Charge           Charge          ....    0
 Multiplicity           Mult            ....    1
 Number of Electrons    NEL             ....   16
 Basis Dimension        Dim             ....   86

ORBITAL ENERGIES
----------------

  NO   OCC          E(Eh)            E(eV)
   0   2.0000     -10.047528      -273.4071
   1   2.0000     -10.045032      -273.3392
   2   2.0000      -0.541968       -14.7477
   3   2.0000      -0.522541       -14.2191
   4   2.0000      -0.297764        -8.1026
   5   2.0000      -0.285579        -7.7710
   6   2.0000      -0.256646        -6.9837
   7   2.0000      -0.223504        -6.0818
   8   0.0000      -0.209972        -5.7136
   9   0.0000      -0.186919        -5.0863
  10   0.0000      -0.100973        -2.7476
  11   0.0000      -0.067551        -1.8382
  12   0.0000      -0.052221        -1.4210

MULLIKEN ATOMIC CHARGES
-----------------------
   0 C :   -0.073377
   1 C :   -0.084990
   2 H :   -0.010825
   3 H :    0.076125
   4 H :    0.040179
   5 H :    0.052888
Sum of atomic charges:    0.0000000

LOEWDIN ATOMIC CHARGES
----------------------
   0 C :   -0.151277
   1 C :   -0.153420
   2 H :    0.037175
   3 H :    0.100224
   4 H :    0.081356
   5 H :    0.085942

  Mayer bond orders larger than 0.1
B(  0-C ,  2-H ) :   0.9488 B(  0-C ,  3-H ) :   0.9291 B(  1-C ,  4-H ) :   0.9523
B(  1-C ,  5-H ) :   0.9419

FINAL SINGLE POINT ENERGY       -77.907121132593
FINAL SINGLE POINT ENERGY       -77.946294473403
FINAL SINGLE POINT ENERGY       -77.984891167438
FINAL SINGLE POINT ENERGY       -78.021601767262
FINAL SINGLE POINT ENERGY       -78.054859965540
FINAL SINGLE POINT ENERGY       -78.083070964683
FINAL SINGLE POINT ENERGY       -78.105534206408
FINAL SINGLE POINT ENERGY       -78.123310827132
FINAL SINGLE POINT ENERGY       -78.136592949312
FINAL SINGLE POINT ENERGY       -78.143644991896
FINAL SINGLE POINT ENERGY       -78.479818966448
FINAL SINGLE POINT ENERGY       -78.485233067206
FINAL SINGLE POINT ENERGY       -78.492608495647
FINAL SINGLE POINT ENERGY       -78.496858500433
FINAL SINGLE POINT ENERGY       -78.499380417947
FINAL SINGLE POINT ENERGY       -78.500226892472
FINAL SINGLE POINT ENERGY       -78.500073500362
FINAL SINGLE POINT ENERGY       -78.500264607657
FINAL SINGLE POINT ENERGY       -78.500196019383

CARTESIAN COORDINATES (ANGSTROEM)
---------------------------------
  C     -4.611854   -0.525642   -1.149440
  C     -3.294733   -0.363527   -1.022484
  H     -5.123503   -0.346379   -2.096718
  H     -5.236875   -0.843749   -0.312177
  H     -2.670623   -0.049847   -1.862645
  H     -2.784701   -0.540766   -0.073226

FINAL SINGLE POINT ENERGY       -78.500530049193

DIPOLE MOMENT
-------------
                                X             Y             Z
Electronic contribution:      0.00039      -0.00097      -0.00029
Nuclear contribution   :     -0.00193       0.00076      -0.00009
                        -----------------------------------------
Total Dipole Moment    :     -0.00153      -0.00021      -0.00038
                        -----------------------------------------
Magnitude (a.u.)       :      0.00159
Magnitude (Debye)      :      0.00404

                             ****ORCA TERMINATED NORMALLY****
TOTAL RUN TIME: 0 days 0 hours 8 minutes 48 seconds 803 msec
