                         Program Version 4.0.1.2 - RELEASE -
|  1> # avogadro generated ORCA input file
|  2> # Basic Mode
|  3> #
|  4> ! PBE FREQ def2-TZVP
|  5>
|  6> * xyzfile 0 1 opt.xyz
|  7>
|  8>
|  9>                          ****END OF INPUT****

CARTESIAN COORDINATES (ANGSTROEM)
---------------------------------
  C     -1.130089    0.866911   -0.006454
  O     -2.293291    0.856793    0.131161
  O      0.033140    0.877086   -0.143956

 Total Charge           Charge          ....    0
 Multiplicity           Mult            ....    1
 Number of Electrons    NEL             ....   22
 Basis Dimension        Dim             ....   93

ORBITAL ENERGIES
----------------

  NO   OCC          E(Eh)            E(eV)
   0   2.0000     -18.830943      -512.4160
   1   2.0000     -18.830929      -512.4156
   2   2.0000     -10.058600      -273.7084
   3   2.0000      -1.066664       -29.0254
   4   2.0000      -1.029707       -28.0198
   5   2.0000      -0.506558       -13.7841
   6   2.0000      -0.464297       -12.6342
   7   2.0000      -0.463748       -12.6192
   8   2.0000      -0.463747       -12.6192
   9   2.0000      -0.331569        -9.0224
  10   2.0000      -0.331566        -9.0224
  11   0.0000      -0.015132        -0.4118
  12   0.0000      -0.015113        -0.4112
  13   0.0000      -0.007862        -0.2139
  14   0.0000       0.149167         4.0590
  15   0.0000       0.166918         4.5421

MULLIKEN ATOMIC CHARGES
-----------------------
   0 C :    0.325186
   1 O :   -0.162586
   2 O :   -0.162600
Sum of atomic charges:   -0.0000000

LOEWDIN ATOMIC CHARGES
----------------------
   0 C :   -0.429374
   1 O :    0.214694
   2 O :    0.214680

  Mayer bond orders larger than 0.1
B(  0-C ,  1-O ) :   2.1646 B(  0-C ,  2-O ) :   2.1645 B(  1-O ,  2-O ) :   0.2428

FINAL SINGLE POINT ENERGY      -188.479323337758

DIPOLE MOMENT
-------------
                                X             Y             Z
Electronic contribution:     -0.00002      -0.00003      -0.00005
Nuclear contribution   :      0.00000       0.00000       0.00000
                        -----------------------------------------
Total Dipole Moment    :     -0.00002      -0.00003      -0.00005
                        -----------------------------------------
Magnitude (a.u.)       :      0.00006
Magnitude (Debye)      :      0.00014

VIBRATIONAL FREQUENCIES
-----------------------

   0:         0.00 cm**-1
   1:         0.00 cm**-1
   2:         0.00 cm**-1
   3:         0.00 cm**-1
   4:         0.00 cm**-1
   5:         0.00 cm**-1
   6:       644.44 cm**-1
   7:      1323.23 cm**-1
   8:      2359.58 cm**-1

IR SPECTRUM
-----------

 Mode    freq (cm**-1)   T**2         TX         TY         TZ
-------------------------------------------------------------------
   6:       644.44   22.960149  (  0.488497   2.169448   4.244410)
   7:      1323.23    0.000001  (  0.000862   0.000084   0.000050)
   8:      2359.58  518.434446  ( 22.611594   0.196895  -2.666737)

--------------------------
THERMOCHEMISTRY AT 298.15K
--------------------------

Temperature         ... 298.15 K
Pressure            ... 1.00 atm
Total Mass          ... 44.01 AMU

Throughout the following assumptions are being made:
  (1) The electronic state is orbitally nondegenerate
  (2) There are no thermally accessible electronically excited states
  (3) Hindered rotations indicated by low frequency modes are not
      treated as such but are treated as vibrations and this may
      cause some error
  (4) All equations used are the standard statistical mechanics
      equations for an ideal gas
  (5) All vibrations are strictly harmonic

freq.     644.44  E(vib)   ...       0.09
freq.    1323.23  E(vib)   ...       0.01
freq.    2359.58  E(vib)   ...       0.00

------------
INNER ENERGY
------------

The inner energy is: U= E(el) + E(ZPE) + E(vib) + E(rot) + E(trans)
    E(el)   - is the total energy from the electronic structure calculation
              = E(kin-el) + E(nuc-el) + E(el-el) + E(nuc-nuc)
    E(ZPE)  - the the zero temperature vibrational energy from the frequency calculation
    E(vib)  - the the finite temperature correction to E(ZPE) due to population
              of excited vibrational states
    E(rot)  - is the rotational thermal energy
    E(trans)- is the translational thermal energy

Summary of contributions to the inner energy U:
Electronic energy                ...   -188.47932334 Eh
Zero point energy                ...      0.00985822 Eh       6.19 kcal/mol
Thermal vibrational correction   ...      0.00014741 Eh       0.09 kcal/mol
Thermal rotational correction    ...      0.00141627 Eh       0.89 kcal/mol
Thermal translational correction ...      0.00141627 Eh       0.89 kcal/mol
-----------------------------------------------------------------------
Total thermal energy                   -188.46648516 Eh

Summary of corrections to the electronic energy:
(perhaps to be used in another calculation)
Total thermal correction                  0.00297995 Eh       1.87 kcal/mol
Non-thermal (ZPE) correction              0.00985822 Eh       6.19 kcal/mol
-----------------------------------------------------------------------
Total correction                          0.01283817 Eh       8.06 kcal/mol

--------
ENTHALPY
--------

The enthalpy is H = U + kB*T
                kB is Boltzmann's constant
Total free energy                 ...   -188.46648516 Eh
Thermal Enthalpy correction       ...      0.00094421 Eh       0.59 kcal/mol
-----------------------------------------------------------------------
Total Enthalpy                    ...   -188.46554096 Eh

Vibrational entropy computed according to the QRRHO of S. Grimme
Chem.Eur.J. 2012 18 9955

-------
ENTROPY
-------

The entropy contributions are T*S = T*(S(el)+S(vib)+S(rot)+S(trans)
     S(el)   - electronic entropy
     S(vib)  - vibrational entropy
     S(rot)  - rotational entropy
     S(trans)- translational entropy
The entropies will be listed as mutliplied by the temperature to get
units of energy

Electronic entropy                ...      0.00000000 Eh      0.00 kcal/mol
Vibrational entropy               ...      0.00019227 Eh      0.12 kcal/mol
Rotational entropy                ...     -0.00004343 Eh     -0.03 kcal/mol
Translational entropy             ...      0.01770880 Eh     11.11 kcal/mol
-----------------------------------------------------------------------
Final entropy term                ...      0.01785765 Eh     11.21 kcal/mol

CAUTION: The rotational entropy is not quite correctly treated here
         because it includes a symmetry number that is not yet correctly
         implemented in ORCA!
For a nonlinear molecule the correct rotational entropy is:
    S(rot) = R*(ln(qrot/sn)+1.5)
    R    = 8.31441 J/mol/K = 1.987191683e-3 kcal/mol/K
    qrot =    0.6393009
    sn is the rotational symmetry number. We have assumed 3 here
       if it is different for your molecule then you should correct
       the printed rotational entropy by manually evaluating the equation
       as given above

For convenience we print out the resulting values for sn=1 - 12:
 sn= 1  qrot/sn=       0.6393 T*S(rot)=     0.62 kcal/mol T*S(tot)=    11.86 kcal/mol
 sn= 2  qrot/sn=       0.3197 T*S(rot)=     0.21 kcal/mol T*S(tot)=    11.45 kcal/mol
 sn= 3  qrot/sn=       0.2131 T*S(rot)=    -0.03 kcal/mol T*S(tot)=    11.21 kcal/mol
 sn= 4  qrot/sn=       0.1598 T*S(rot)=    -0.20 kcal/mol T*S(tot)=    11.04 kcal/mol
 sn= 5  qrot/sn=       0.1279 T*S(rot)=    -0.33 kcal/mol T*S(tot)=    10.90 kcal/mol
 sn= 6  qrot/sn=       0.1066 T*S(rot)=    -0.44 kcal/mol T*S(tot)=    10.80 kcal/mol
 sn= 7  qrot/sn=       0.0913 T*S(rot)=    -0.53 kcal/mol T*S(tot)=    10.70 kcal/mol
 sn= 8  qrot/sn=       0.0799 T*S(rot)=    -0.61 kcal/mol T*S(tot)=    10.62 kcal/mol
 sn= 9  qrot/sn=       0.0710 T*S(rot)=    -0.68 kcal/mol T*S(tot)=    10.55 kcal/mol
 sn=10  qrot/sn=       0.0639 T*S(rot)=    -0.74 kcal/mol T*S(tot)=    10.49 kcal/mol
 sn=11  qrot/sn=       0.0581 T*S(rot)=    -0.80 kcal/mol T*S(tot)=    10.44 kcal/mol
 sn=12  qrot/sn=       0.0533 T*S(rot)=    -0.85 kcal/mol T*S(tot)=    10.38 kcal/mol

-------------------
GIBBS FREE ENTHALPY
-------------------

The Gibbs free enthalpy is G = H - T*S

Total enthalpy                    ...   -188.46554096 Eh
Total entropy correction          ...     -0.01785765 Eh    -11.21 kcal/mol
-----------------------------------------------------------------------
Final Gibbs free enthalpy         ...   -188.48339860 Eh

For completeness - the Gibbs free enthalpy minus the electronic energy
G-E(el)                           ...     -0.00407527 Eh     -2.56 kcal/mol

                             ****ORCA TERMINATED NORMALLY****
TOTAL RUN TIME: 0 days 0 hours 0 minutes 23 seconds 733 msec
