                         Program Version 4.0.1.2 - RELEASE -
|  1> # avogadro generated ORCA input file
|  2> # Basic Mode
|  3> #
|  4> ! PBE OPT def2-TZVP
|  5>
|  6> * xyzfile 0 1 CO2.xyz
|  7>
|  8>
|  9>                          ****END OF INPUT****
 Total Charge           Charge          ....    0
 Multiplicity           Mult            ....    1
 Number of Electrons    NEL             ....   22
FINAL SINGLE POINT ENERGY      -188.470796313814
FINAL SINGLE POINT ENERGY      -188.478777718222
FINAL SINGLE POINT ENERGY      -188.479209515826
FINAL SINGLE POINT ENERGY      -188.479264084573
FINAL SINGLE POINT ENERGY      -188.479282729556
FINAL SINGLE POINT ENERGY      -188.479321634408
FINAL SINGLE POINT ENERGY      -188.479323223002
                    ***********************HURRAY********************

CARTESIAN COORDINATES (ANGSTROEM)
---------------------------------
  C     -1.130089    0.866911   -0.006454
  O     -2.293291    0.856793    0.131161
  O      0.033140    0.877086   -0.143956

 Multiplicity           Mult            ....    1
 Number of Electrons    NEL             ....   22
 Basis Dimension        Dim             ....   93

ORBITAL ENERGIES
----------------

  NO   OCC          E(Eh)            E(eV)
   0   2.0000     -18.830941      -512.4160
   1   2.0000     -18.830930      -512.4157
   2   2.0000     -10.058588      -273.7081
   3   2.0000      -1.066660       -29.0253
   4   2.0000      -1.029703       -28.0196
   5   2.0000      -0.506556       -13.7841
   6   2.0000      -0.464295       -12.6341
   7   2.0000      -0.463744       -12.6191
   8   2.0000      -0.463743       -12.6191
   9   2.0000      -0.331566        -9.0224
  10   2.0000      -0.331564        -9.0223
  11   0.0000      -0.015129        -0.4117
  12   0.0000      -0.015110        -0.4112
  13   0.0000      -0.007861        -0.2139
  14   0.0000       0.149168         4.0591
  15   0.0000       0.166919         4.5421

MULLIKEN ATOMIC CHARGES
-----------------------
   0 C :    0.325214
   1 O :   -0.162596
   2 O :   -0.162617
Sum of atomic charges:   -0.0000000

LOEWDIN ATOMIC CHARGES
----------------------
   0 C :   -0.429373
   1 O :    0.214696
   2 O :    0.214677

  Mayer bond orders larger than 0.1
B(  0-C ,  1-O ) :   2.1645 B(  0-C ,  2-O ) :   2.1645 B(  1-O ,  2-O ) :   0.2428

FINAL SINGLE POINT ENERGY      -188.479323343985

DIPOLE MOMENT
-------------
                                X             Y             Z
Electronic contribution:     -0.00003      -0.00003      -0.00005
Nuclear contribution   :      0.00000       0.00000       0.00000
                        -----------------------------------------
Total Dipole Moment    :     -0.00003      -0.00003      -0.00005
                        -----------------------------------------
Magnitude (a.u.)       :      0.00006
Magnitude (Debye)      :      0.00016

                             ****ORCA TERMINATED NORMALLY****
TOTAL RUN TIME: 0 days 0 hours 0 minutes 40 seconds 835 msec
