                         Program Version 4.0.1.2 - RELEASE -
|  1> # avogadro generated ORCA input file
|  2> # Basic Mode
|  3> #
|  4> ! PBE FREQ def2-TZVP
|  5>
|  6> * xyzfile 0 1 opt.xyz
|  7>
|  8>
|  9>                          ****END OF INPUT****

CARTESIAN COORDINATES (ANGSTROEM)
---------------------------------
  P     -0.682398    0.331559    0.048095
  F     -0.707221    1.916165    0.276262
  F     -2.247367    0.312628    0.003702
  F     -0.656128   -1.253244   -0.180379
  F      0.061844    0.146886    1.413183
  F      0.134959    0.534666   -1.271892

 Total Charge           Charge          ....    0
 Multiplicity           Mult            ....    1
 Number of Electrons    NEL             ....   60
 Basis Dimension        Dim             ....  192

ORBITAL ENERGIES
----------------

  NO   OCC          E(Eh)            E(eV)
   0   2.0000     -76.559015     -2083.2767
   1   2.0000     -24.324715      -661.9091
   2   2.0000     -24.324696      -661.9086
   3   2.0000     -24.324668      -661.9079
   4   2.0000     -24.284625      -660.8182
   5   2.0000     -24.284522      -660.8154
   6   2.0000      -6.529847      -177.6862
   7   2.0000      -4.748518      -129.2137
   8   2.0000      -4.748494      -129.2131
   9   2.0000      -4.745463      -129.1306
  10   2.0000      -1.225830       -33.3565
  11   2.0000      -1.168232       -31.7892
  12   2.0000      -1.168153       -31.7871
  13   2.0000      -1.134096       -30.8603
  14   2.0000      -1.105697       -30.0876
  15   2.0000      -0.649947       -17.6860
  16   2.0000      -0.551796       -15.0151
  17   2.0000      -0.551753       -15.0140
  18   2.0000      -0.537632       -14.6297
  19   2.0000      -0.473850       -12.8941
  20   2.0000      -0.473733       -12.8909
  21   2.0000      -0.460829       -12.5398
  22   2.0000      -0.460793       -12.5388
  23   2.0000      -0.446523       -12.1505
  24   2.0000      -0.422713       -11.5026
  25   2.0000      -0.403403       -10.9771
  26   2.0000      -0.387879       -10.5547
  27   2.0000      -0.387834       -10.5535
  28   2.0000      -0.363683        -9.8963
  29   2.0000      -0.363608        -9.8943
  30   0.0000      -0.044481        -1.2104
  31   0.0000       0.029688         0.8079
  32   0.0000       0.030328         0.8253
  33   0.0000       0.122063         3.3215
  34   0.0000       0.165679         4.5084

MULLIKEN ATOMIC CHARGES
-----------------------
   0 P :    0.949176
   1 F :   -0.234868
   2 F :   -0.160480
   3 F :   -0.234992
   4 F :   -0.159438
   5 F :   -0.159398
Sum of atomic charges:   -0.0000000

LOEWDIN ATOMIC CHARGES
----------------------
   0 P :   -0.067606
   1 F :   -0.026081
   2 F :    0.039987
   3 F :   -0.026400
   4 F :    0.040075
   5 F :    0.040026

  Mayer bond orders larger than 0.1
B(  0-P ,  1-F ) :   1.1853 B(  0-P ,  2-F ) :   1.2087 B(  0-P ,  3-F ) :   1.1851
B(  0-P ,  4-F ) :   1.2104 B(  0-P ,  5-F ) :   1.2105

FINAL SINGLE POINT ENERGY      -840.354626699467

DIPOLE MOMENT
-------------
                                X             Y             Z
Electronic contribution:      0.00129       0.00079       0.00027
Nuclear contribution   :      0.00018       0.00006      -0.00004
                        -----------------------------------------
Total Dipole Moment    :      0.00147       0.00085       0.00023
                        -----------------------------------------
Magnitude (a.u.)       :      0.00171
Magnitude (Debye)      :      0.00435

VIBRATIONAL FREQUENCIES
-----------------------

   0:         0.00 cm**-1
   1:         0.00 cm**-1
   2:         0.00 cm**-1
   3:         0.00 cm**-1
   4:         0.00 cm**-1
   5:         0.00 cm**-1
   6:       151.34 cm**-1
   7:       153.55 cm**-1
   8:       476.51 cm**-1
   9:       477.90 cm**-1
  10:       494.83 cm**-1
  11:       495.61 cm**-1
  12:       538.77 cm**-1
  13:       613.05 cm**-1
  14:       756.54 cm**-1
  15:       906.05 cm**-1
  16:       963.17 cm**-1
  17:       964.58 cm**-1

IR SPECTRUM
-----------

 Mode    freq (cm**-1)   T**2         TX         TY         TZ
-------------------------------------------------------------------
   6:       151.34    0.015756  (  0.125305   0.005609   0.004804)
   7:       153.55    0.013558  ( -0.024783  -0.011933   0.113145)
   8:       476.51    0.003107  (  0.012199  -0.029413  -0.045750)
   9:       477.90    0.023572  ( -0.041608  -0.143329  -0.036017)
  10:       494.83   32.356816  ( -0.671314   0.814418  -5.589533)
  11:       495.61   32.384755  (  5.651197   0.192127  -0.641729)
  12:       538.77   46.609411  (  0.108184  -6.752782  -0.998818)
  13:       613.05    0.000449  (  0.008205  -0.019448  -0.001990)
  14:       756.54    0.001182  (  0.024471  -0.017554  -0.016580)
  15:       906.05  388.768971  ( -0.301614  19.510629   2.830790)
  16:       963.17  257.091140  ( 15.914098  -0.047822   1.957125)
  17:       964.58  257.850914  (  1.947588   2.333620 -15.767436)

--------------------------
THERMOCHEMISTRY AT 298.15K
--------------------------

Temperature         ... 298.15 K
Pressure            ... 1.00 atm
Total Mass          ... 125.96 AMU

Throughout the following assumptions are being made:
  (1) The electronic state is orbitally nondegenerate
  (2) There are no thermally accessible electronically excited states
  (3) Hindered rotations indicated by low frequency modes are not
      treated as such but are treated as vibrations and this may
      cause some error
  (4) All equations used are the standard statistical mechanics
      equations for an ideal gas
  (5) All vibrations are strictly harmonic

freq.     151.34  E(vib)   ...       0.40
freq.     153.55  E(vib)   ...       0.40
freq.     476.51  E(vib)   ...       0.15
freq.     477.90  E(vib)   ...       0.15
freq.     494.83  E(vib)   ...       0.14
freq.     495.61  E(vib)   ...       0.14
freq.     538.77  E(vib)   ...       0.12
freq.     613.05  E(vib)   ...       0.10
freq.     756.54  E(vib)   ...       0.06
freq.     906.05  E(vib)   ...       0.03
freq.     963.17  E(vib)   ...       0.03
freq.     964.58  E(vib)   ...       0.03

------------
INNER ENERGY
------------

The inner energy is: U= E(el) + E(ZPE) + E(vib) + E(rot) + E(trans)
    E(el)   - is the total energy from the electronic structure calculation
              = E(kin-el) + E(nuc-el) + E(el-el) + E(nuc-nuc)
    E(ZPE)  - the the zero temperature vibrational energy from the frequency calculation
    E(vib)  - the the finite temperature correction to E(ZPE) due to population
              of excited vibrational states
    E(rot)  - is the rotational thermal energy
    E(trans)- is the translational thermal energy

Summary of contributions to the inner energy U:
Electronic energy                ...   -840.35462670 Eh
Zero point energy                ...      0.01592871 Eh      10.00 kcal/mol
Thermal vibrational correction   ...      0.00279596 Eh       1.75 kcal/mol
Thermal rotational correction    ...      0.00141627 Eh       0.89 kcal/mol
Thermal translational correction ...      0.00141627 Eh       0.89 kcal/mol
-----------------------------------------------------------------------
Total thermal energy                   -840.33306948 Eh

Summary of corrections to the electronic energy:
(perhaps to be used in another calculation)
Total thermal correction                  0.00562851 Eh       3.53 kcal/mol
Non-thermal (ZPE) correction              0.01592871 Eh      10.00 kcal/mol
-----------------------------------------------------------------------
Total correction                          0.02155722 Eh      13.53 kcal/mol

--------
ENTHALPY
--------

The enthalpy is H = U + kB*T
                kB is Boltzmann's constant
Total free energy                 ...   -840.33306948 Eh
Thermal Enthalpy correction       ...      0.00094421 Eh       0.59 kcal/mol
-----------------------------------------------------------------------
Total Enthalpy                    ...   -840.33212527 Eh

Vibrational entropy computed according to the QRRHO of S. Grimme
Chem.Eur.J. 2012 18 9955

-------
ENTROPY
-------

The entropy contributions are T*S = T*(S(el)+S(vib)+S(rot)+S(trans)
     S(el)   - electronic entropy
     S(vib)  - vibrational entropy
     S(rot)  - rotational entropy
     S(trans)- translational entropy
The entropies will be listed as mutliplied by the temperature to get
units of energy

Electronic entropy                ...      0.00000000 Eh      0.00 kcal/mol
Vibrational entropy               ...      0.00455873 Eh      2.86 kcal/mol
Rotational entropy                ...      0.01163873 Eh      7.30 kcal/mol
Translational entropy             ...      0.01919815 Eh     12.05 kcal/mol
-----------------------------------------------------------------------
Final entropy term                ...      0.03539561 Eh     22.21 kcal/mol

CAUTION: The rotational entropy is not quite correctly treated here
         because it includes a symmetry number that is not yet correctly
         implemented in ORCA!
For a nonlinear molecule the correct rotational entropy is:
    S(rot) = R*(ln(qrot/sn)+1.5)
    R    = 8.31441 J/mol/K = 1.987191683e-3 kcal/mol/K
    qrot = 151056.3666649
    sn is the rotational symmetry number. We have assumed 3 here
       if it is different for your molecule then you should correct
       the printed rotational entropy by manually evaluating the equation
       as given above

For convenience we print out the resulting values for sn=1 - 12:
 sn= 1  qrot/sn=  151056.3667 T*S(rot)=     7.95 kcal/mol T*S(tot)=    22.86 kcal/mol
 sn= 2  qrot/sn=   75528.1833 T*S(rot)=     7.54 kcal/mol T*S(tot)=    22.45 kcal/mol
 sn= 3  qrot/sn=   50352.1222 T*S(rot)=     7.30 kcal/mol T*S(tot)=    22.21 kcal/mol
 sn= 4  qrot/sn=   37764.0917 T*S(rot)=     7.13 kcal/mol T*S(tot)=    22.04 kcal/mol
 sn= 5  qrot/sn=   30211.2733 T*S(rot)=     7.00 kcal/mol T*S(tot)=    21.91 kcal/mol
 sn= 6  qrot/sn=   25176.0611 T*S(rot)=     6.89 kcal/mol T*S(tot)=    21.80 kcal/mol
 sn= 7  qrot/sn=   21579.4810 T*S(rot)=     6.80 kcal/mol T*S(tot)=    21.71 kcal/mol
 sn= 8  qrot/sn=   18882.0458 T*S(rot)=     6.72 kcal/mol T*S(tot)=    21.63 kcal/mol
 sn= 9  qrot/sn=   16784.0407 T*S(rot)=     6.65 kcal/mol T*S(tot)=    21.56 kcal/mol
 sn=10  qrot/sn=   15105.6367 T*S(rot)=     6.59 kcal/mol T*S(tot)=    21.50 kcal/mol
 sn=11  qrot/sn=   13732.3970 T*S(rot)=     6.53 kcal/mol T*S(tot)=    21.44 kcal/mol
 sn=12  qrot/sn=   12588.0306 T*S(rot)=     6.48 kcal/mol T*S(tot)=    21.39 kcal/mol

-------------------
GIBBS FREE ENTHALPY
-------------------

The Gibbs free enthalpy is G = H - T*S

Total enthalpy                    ...   -840.33212527 Eh
Total entropy correction          ...     -0.03539561 Eh    -22.21 kcal/mol
-----------------------------------------------------------------------
Final Gibbs free enthalpy         ...   -840.36752088 Eh

For completeness - the Gibbs free enthalpy minus the electronic energy
G-E(el)                           ...     -0.01289418 Eh     -8.09 kcal/mol

                             ****ORCA TERMINATED NORMALLY****
TOTAL RUN TIME: 0 days 0 hours 1 minutes 46 seconds 936 msec
