                         Program Version 4.0.1.2 - RELEASE -
|  1> # avogadro generated ORCA input file
|  2> # Basic Mode
|  3> #
|  4> ! PBE OPT def2-TZVP
|  5>
|  6> * xyzfile 0 1 PF5.xyz
|  7>
|  8>
|  9>                          ****END OF INPUT****
 Total Charge           Charge          ....    0
 Multiplicity           Mult            ....    1
 Number of Electrons    NEL             ....   60
FINAL SINGLE POINT ENERGY      -840.015793245964
FINAL SINGLE POINT ENERGY      -840.072357767485
FINAL SINGLE POINT ENERGY      -840.124795575149
FINAL SINGLE POINT ENERGY      -840.171227027895
FINAL SINGLE POINT ENERGY      -840.209659183745
FINAL SINGLE POINT ENERGY      -840.239931766902
FINAL SINGLE POINT ENERGY      -840.264493303323
FINAL SINGLE POINT ENERGY      -840.286144547001
FINAL SINGLE POINT ENERGY      -840.306507348498
FINAL SINGLE POINT ENERGY      -840.325732342341
FINAL SINGLE POINT ENERGY      -840.353738116117
FINAL SINGLE POINT ENERGY      -840.353734427153
FINAL SINGLE POINT ENERGY      -840.354224310526
FINAL SINGLE POINT ENERGY      -840.354390169827
FINAL SINGLE POINT ENERGY      -840.354592799441
FINAL SINGLE POINT ENERGY      -840.354618311187
FINAL SINGLE POINT ENERGY      -840.354622203431
FINAL SINGLE POINT ENERGY      -840.354624609518
FINAL SINGLE POINT ENERGY      -840.354625980644
                    ***********************HURRAY********************

CARTESIAN COORDINATES (ANGSTROEM)
---------------------------------
  P     -0.682398    0.331559    0.048095
  F     -0.707221    1.916165    0.276262
  F     -2.247367    0.312628    0.003702
  F     -0.656128   -1.253244   -0.180379
  F      0.061844    0.146886    1.413183
  F      0.134959    0.534666   -1.271892

 Multiplicity           Mult            ....    1
 Number of Electrons    NEL             ....   60
 Basis Dimension        Dim             ....  192

ORBITAL ENERGIES
----------------

  NO   OCC          E(Eh)            E(eV)
   0   2.0000     -76.559017     -2083.2768
   1   2.0000     -24.324712      -661.9091
   2   2.0000     -24.324692      -661.9085
   3   2.0000     -24.324667      -661.9078
   4   2.0000     -24.284640      -660.8187
   5   2.0000     -24.284524      -660.8155
   6   2.0000      -6.529848      -177.6862
   7   2.0000      -4.748519      -129.2138
   8   2.0000      -4.748495      -129.2131
   9   2.0000      -4.745464      -129.1306
  10   2.0000      -1.225830       -33.3565
  11   2.0000      -1.168231       -31.7892
  12   2.0000      -1.168152       -31.7870
  13   2.0000      -1.134100       -30.8604
  14   2.0000      -1.105700       -30.0876
  15   2.0000      -0.649947       -17.6860
  16   2.0000      -0.551795       -15.0151
  17   2.0000      -0.551752       -15.0139
  18   2.0000      -0.537634       -14.6298
  19   2.0000      -0.473851       -12.8941
  20   2.0000      -0.473734       -12.8909
  21   2.0000      -0.460828       -12.5398
  22   2.0000      -0.460792       -12.5388
  23   2.0000      -0.446525       -12.1506
  24   2.0000      -0.422712       -11.5026
  25   2.0000      -0.403403       -10.9771
  26   2.0000      -0.387882       -10.5548
  27   2.0000      -0.387837       -10.5536
  28   2.0000      -0.363685        -9.8964
  29   2.0000      -0.363610        -9.8943
  30   0.0000      -0.044481        -1.2104
  31   0.0000       0.029688         0.8079
  32   0.0000       0.030328         0.8253
  33   0.0000       0.122062         3.3215
  34   0.0000       0.165679         4.5084

MULLIKEN ATOMIC CHARGES
-----------------------
   0 P :    0.949173
   1 F :   -0.234861
   2 F :   -0.160480
   3 F :   -0.234991
   4 F :   -0.159441
   5 F :   -0.159400
Sum of atomic charges:   -0.0000000

LOEWDIN ATOMIC CHARGES
----------------------
   0 P :   -0.067608
   1 F :   -0.026075
   2 F :    0.039986
   3 F :   -0.026399
   4 F :    0.040072
   5 F :    0.040024

  Mayer bond orders larger than 0.1
B(  0-P ,  1-F ) :   1.1853 B(  0-P ,  2-F ) :   1.2087 B(  0-P ,  3-F ) :   1.1851
B(  0-P ,  4-F ) :   1.2104 B(  0-P ,  5-F ) :   1.2105

FINAL SINGLE POINT ENERGY      -840.354626584164

DIPOLE MOMENT
-------------
                                X             Y             Z
Electronic contribution:      0.00130       0.00080       0.00027
Nuclear contribution   :      0.00018       0.00006      -0.00004
                        -----------------------------------------
Total Dipole Moment    :      0.00148       0.00087       0.00023
                        -----------------------------------------
Magnitude (a.u.)       :      0.00173
Magnitude (Debye)      :      0.00439

                             ****ORCA TERMINATED NORMALLY****
TOTAL RUN TIME: 0 days 0 hours 6 minutes 2 seconds 830 msec
